<?xml version="1.0"?>
<VTKFile type="PolyData" version="0.1" byte_order="LittleEndian" compressor="vtkZLibDataCompressor">
	<PolyData>
		<Piece NumberOfPoints="1321" NumberOfVerts="0" NumberOfLines="0" NumberOfStrips="0" NumberOfPolys="2638">
		<PointData Normals="Normals">
		<DataArray type="Float32" Name="Normals" NumberOfComponents="3" format="ascii">
			-0.446037 -0.868791  0.215065
			-0.385276 -0.920744  0.061594
			-0.266421 -0.838654  0.475057
			-0.374960 -0.841166  0.389673
			-0.494743 -0.867194 -0.056601
			-0.498480 -0.863602 -0.075553
			-0.148691 -0.987289  0.056129
			-0.313429 -0.926650 -0.207561
			-0.177559 -0.509066  0.842214
			-0.258630 -0.542692  0.799122
			-0.102672 -0.824322  0.556733
			-0.141263 -0.882343  0.448904
			-0.293121 -0.535208  0.792233
			-0.423905 -0.596496  0.681540
			-0.496876 -0.825679  0.267149
			-0.279878 -0.911091 -0.302624
			-0.378720 -0.862737 -0.335048
			-0.652584 -0.751314  0.098292
			-0.585094 -0.792001 -0.174354
			-0.030757 -0.975436  0.218127
			 0.040133 -0.971519 -0.233539
			-0.087241 -0.950244 -0.299041
			-0.174923 -0.182349  0.967549
			-0.139409 -0.173271  0.974957
			-0.085971 -0.460571  0.883450
			-0.200504 -0.204121  0.958193
			-0.077332 -0.912113  0.402578
			-0.008782 -0.752604  0.658415
			-0.000200 -0.985027  0.172402
			-0.001156 -0.978543  0.206040
			-0.276602 -0.228810  0.933347
			-0.606455 -0.569028  0.555355
			-0.465976 -0.278332  0.839879
			 0.065560 -0.952691 -0.296787
			-0.115374 -0.934885 -0.335677
			-0.420794 -0.866852 -0.267396
			-0.750797 -0.499253  0.432492
			-0.710798 -0.686107  0.154996
			-0.581414 -0.812282 -0.046429
			-0.066001 -0.955584 -0.287233
			-0.066187 -0.965450 -0.252042
			-0.112133  0.029892  0.993243
			-0.084826  0.037051  0.995707
			-0.052001 -0.170566  0.983973
			-0.065041 -0.004663  0.997872
			 0.018955 -0.396167  0.917983
			-0.131494  0.018747  0.991140
			 0.127219 -0.644008  0.754366
			 0.114479 -0.931626  0.344917
			 0.081494 -0.994674 -0.063109
			-0.269623 -0.042618  0.962023
			-0.652965 -0.367764  0.662108
			-0.529792 -0.221109  0.818799
			 0.001279 -0.968333 -0.249658
			-0.021115 -0.873459 -0.486440
			-0.270745 -0.870897 -0.410166
			-0.500388 -0.832243 -0.238711
			-0.751934 -0.490779  0.440150
			-0.677522 -0.508368  0.531532
			-0.626142 -0.748488  0.218432
			-0.547815 -0.834731 -0.055892
			 0.020856 -0.940592 -0.338898
			-0.059074 -0.951797 -0.300985
			-0.006465  0.163904  0.986455
			-0.161050  0.204361  0.965557
			-0.007770  0.032817  0.999431
			 0.057617 -0.172933  0.983247
			 0.125164 -0.289102  0.949081
			-0.227464  0.116381  0.966807
			 0.283447 -0.517077  0.807644
			 0.401083 -0.759096  0.512743
			 0.340170 -0.933904  0.110037
			 0.356128 -0.918520 -0.171736
			-0.414833 -0.035095  0.909220
			-0.613345 -0.178808  0.769309
			 0.028350 -0.847002 -0.530833
			 0.059853 -0.873720 -0.482733
			-0.100818 -0.835253 -0.540543
			 0.031227 -0.706525 -0.706999
			-0.387764 -0.771652 -0.504175
			-0.604101 -0.733597 -0.311282
			-0.710421 -0.460476  0.532226
			-0.660959 -0.713973  0.231032
			-0.632417 -0.774462 -0.016032
			-0.612013 -0.740973 -0.276403
			 0.242268 -0.869364 -0.430711
			 0.365041 -0.849266 -0.381434
			-0.024398  0.183783  0.982664
			-0.121338  0.212069  0.969693
			 0.062155  0.209411  0.975850
			-0.353625  0.282687  0.891649
			-0.268587  0.376383  0.886677
			-0.360330  0.136535  0.922779
			-0.228062  0.313311  0.921859
			 0.084424  0.109551  0.990389
			-0.081950  0.148134  0.985566
			 0.185770 -0.132552  0.973612
			 0.269152 -0.319794  0.908454
			-0.435225  0.018894  0.900123
			 0.397223 -0.457772  0.795399
			 0.560065 -0.810634  0.170878
			 0.517160 -0.628476  0.581002
			 0.527900 -0.836887 -0.144713
			-0.623762 -0.050413  0.779987
			-0.804600 -0.242502  0.542045
			 0.113560 -0.702858 -0.702207
			 0.219330 -0.804684 -0.551705
			-0.114991 -0.694193 -0.710544
			 0.067476 -0.623654 -0.778783
			-0.068187 -0.543149 -0.836863
			-0.017926 -0.531503 -0.846867
			-0.401195 -0.586596 -0.703525
			-0.652591 -0.585781 -0.480610
			-0.770868 -0.530332 -0.352861
			-0.833173 -0.497644  0.241190
			-0.761320 -0.634704 -0.132448
			-0.754450 -0.568703 -0.327693
			 0.367610 -0.827813 -0.423779
			 0.481957 -0.823566 -0.299094
			 0.050633  0.175249  0.983221
			-0.059413  0.196637  0.978675
			 0.104313  0.198235  0.974588
			 0.070925  0.276752  0.958321
			-0.432417  0.460984  0.774926
			-0.389314  0.251400  0.886133
			-0.576455  0.330580  0.747273
			-0.351968  0.425012  0.833956
			-0.346489  0.400910  0.848066
			-0.573477  0.092699  0.813960
			-0.426396  0.265912  0.864568
			 0.129774  0.036493  0.990872
			 0.372342 -0.389201  0.842546
			 0.242939 -0.154749  0.957619
			 0.592424 -0.750332  0.293318
			 0.566576 -0.822651 -0.047306
			 0.501874 -0.521747  0.689857
			 0.478414 -0.446192  0.756328
			-0.873097 -0.145615  0.465293
			-0.753427  0.023741  0.657103
			-0.924087 -0.205686  0.322112
			-0.941501 -0.278007  0.190493
			 0.362943 -0.560221 -0.744597
			 0.263553 -0.688832 -0.675315
			 0.095240 -0.610287 -0.786434
			-0.211418 -0.544913 -0.811402
			-0.234207 -0.460370 -0.856275
			 0.076227 -0.507340 -0.858368
			-0.047698 -0.404259 -0.913400
			-0.520109 -0.483221 -0.704262
			-0.772612 -0.454029 -0.443766
			-0.802530 -0.457751 -0.382636
			-0.960469 -0.262303 -0.093252
			-0.885876 -0.378698 -0.267976
			-0.911898 -0.335434 -0.236486
			-0.885257 -0.461308 -0.059288
			-0.920571 -0.376956 -0.102242
			 0.619688 -0.721505 -0.308896
			 0.422651 -0.688970 -0.588801
			 0.638425 -0.757741 -0.135063
			 0.606284 -0.795213  0.007487
			 0.218788 -0.064526  0.973637
			 0.029874  0.162862  0.986196
			 0.223548  0.176651  0.958551
			 0.094079  0.206448  0.973924
			-0.105348  0.253883  0.961481
			 0.197467  0.226772  0.953720
			 0.111963  0.285964  0.951677
			 0.346559  0.212100  0.913734
			 0.128363  0.450952  0.883270
			 0.279604  0.337969  0.898665
			-0.622941  0.477008  0.620006
			-0.575807  0.425706  0.698012
			-0.357148  0.283104  0.890111
			-0.582600  0.256663  0.771169
			-0.736036  0.348386  0.580412
			-0.795528  0.262699  0.546008
			-0.635682  0.255806  0.728335
			 0.219502 -0.111703  0.969196
			 0.390546 -0.286263  0.874944
			 0.651935 -0.654642  0.382655
			 0.338224 -0.257981  0.905014
			 0.526975 -0.480416  0.701069
			-0.915031  0.014776  0.403112
			-0.982459 -0.097898  0.158716
			-0.987957 -0.144897  0.054280
			 0.367344 -0.517288 -0.772963
			 0.895814 -0.248854 -0.368223
			 0.898006 -0.250401 -0.361779
			 0.240845 -0.525161 -0.816210
			 0.329922 -0.573914 -0.749516
			-0.268549 -0.551694 -0.789630
			 0.107416 -0.388473 -0.915178
			 0.107670 -0.262789 -0.958827
			-0.006357 -0.343061 -0.939292
			-0.614195 -0.493299 -0.615971
			-0.823059 -0.461489 -0.331061
			-0.900295 -0.367770 -0.232840
			-0.982923 -0.179337 -0.041232
			-0.998171  0.021048  0.056669
			-0.993422 -0.096838  0.061117
			 0.592213 -0.607057 -0.529873
			 0.710399 -0.591001 -0.382166
			 0.776489 -0.617085 -0.127556
			 0.816741 -0.508924 -0.271901
			 0.504796 -0.476453 -0.719843
			 0.750596 -0.650676  0.115002
			 0.428608 -0.250735  0.868002
			 0.521351 -0.359748  0.773805
			 0.342798 -0.214111  0.914684
			 0.266462  0.050572  0.962518
			 0.229552  0.211598  0.950017
			-0.145735  0.273397  0.950797
			 0.037581  0.257217  0.965623
			 0.455840  0.193550  0.868762
			 0.279011  0.390718  0.877207
			 0.312404  0.251026  0.916182
			 0.392927  0.188114  0.900123
			 0.452904  0.161736  0.876767
			 0.434001  0.169422  0.884839
			 0.235334  0.382167  0.893626
			 0.174462  0.445087  0.878328
			 0.304747  0.459358  0.834338
			-0.739058  0.470707  0.481900
			-0.796905  0.464326  0.386450
			-0.728048  0.361963  0.582176
			-0.833316  0.203861  0.513834
			-0.575632  0.270527  0.771663
			-0.495932  0.306113  0.812617
			-0.303416  0.303063  0.903378
			-0.214660  0.296405  0.930626
			-0.770499  0.236099  0.592105
			-0.837197  0.372067  0.400833
			-0.849354  0.301686  0.433108
			-0.891278  0.202380  0.405790
			-0.932100  0.245568  0.266243
			 0.722933 -0.518211  0.456974
			 0.667509 -0.531294  0.521688
			-0.962456  0.064812  0.263587
			-0.969976  0.056523  0.236543
			 0.608429 -0.408964 -0.680119
			 0.601142 -0.399369 -0.692194
			 0.844508 -0.250822 -0.473175
			 0.454528 -0.405537 -0.793060
			-0.552074 -0.618613 -0.559046
			-0.428411 -0.668960 -0.607418
			-0.383858 -0.602724 -0.699555
			-0.208569 -0.489699 -0.846578
			 0.229394 -0.285131 -0.930634
			 0.251376 -0.192473 -0.948559
			 0.167941 -0.190909 -0.967135
			-0.215390 -0.332219 -0.918280
			-0.148971 -0.142316 -0.978547
			 0.053360 -0.142723 -0.988323
			-0.842490 -0.409653 -0.349849
			-0.924209 -0.334600 -0.184067
			-0.960255 -0.236781 -0.147803
			-0.978182 -0.186136 -0.092273
			-0.995409  0.029947  0.090911
			-0.963848  0.209456  0.164700
			-0.937796  0.241312  0.249614
			-0.978500  0.179425  0.101705
			-0.997430  0.068456  0.021166
			 0.741496 -0.460382 -0.488091
			 0.857032 -0.512068 -0.057283
			 0.908253 -0.388855 -0.154495
			 0.896714 -0.369210 -0.244107
			 0.863586 -0.439442  0.247204
			 0.577038 -0.402056  0.710900
			 0.445416 -0.191658  0.874570
			 0.524842 -0.070020  0.848315
			 0.160964  0.235995  0.958330
			-0.064710  0.270938  0.960419
			 0.612721 -0.037668  0.789401
			 0.588368  0.315865  0.744347
			 0.794485  0.080990  0.601859
			 0.272462  0.319272  0.907651
			 0.304454  0.215508  0.927828
			 0.473006  0.255484  0.843204
			 0.643567  0.181400  0.743583
			 0.560016  0.171958  0.810440
			 0.720074  0.135984  0.680443
			 0.513365  0.140471  0.846596
			 0.386861  0.376819  0.841633
			 0.604747  0.331423  0.724182
			-0.859825  0.284308  0.424110
			-0.895827  0.383252  0.224970
			-0.896511  0.363031  0.253922
			-0.794652  0.435091  0.423347
			-0.683654  0.261924  0.681185
			-0.361590  0.312198  0.878513
			-0.355871  0.296959  0.886099
			-0.201632  0.293087  0.934582
			-0.875702  0.195524  0.441493
			-0.287878  0.669324  0.684932
			-0.965051  0.159993  0.207555
			-0.808374  0.406314  0.425958
			-0.986009  0.154154 -0.063418
			-0.943285  0.294553  0.153138
			 0.672600 -0.303745  0.674795
			 0.805923 -0.364513  0.466496
			 0.536031 -0.353830 -0.766470
			 0.501601 -0.377654 -0.778315
			 0.650038 -0.432148 -0.625059
			 0.761119 -0.424694 -0.490237
			 0.428700 -0.331284 -0.840516
			-0.626392 -0.584548 -0.515690
			-0.535429 -0.531168 -0.656640
			-0.372742 -0.497953 -0.783011
			 0.165458 -0.128993 -0.977745
			 0.408201 -0.242403 -0.880121
			 0.240664 -0.090151 -0.966413
			 0.190969 -0.115874 -0.974733
			 0.083721 -0.015447 -0.996370
			-0.475948 -0.417002 -0.774327
			-0.373231 -0.236534 -0.897079
			-0.240840 -0.138422 -0.960643
			-0.106777 -0.054038 -0.992813
			-0.224834  0.067052 -0.972087
			-0.319108 -0.003267 -0.947713
			-0.062474  0.086600 -0.994282
			-0.743758 -0.371513 -0.555699
			-0.981691 -0.134243 -0.135134
			-0.907986 -0.231321 -0.349360
			-0.997620 -0.011093  0.068052
			-0.996801 -0.069655  0.039186
			-0.997707  0.011121  0.066769
			-0.956108  0.214963  0.199120
			 0.953342 -0.286710  0.094526
			 0.968125 -0.249128  0.025846
			 0.936496 -0.345513 -0.059958
			 0.965039 -0.194130  0.176104
			 0.811146 -0.441010 -0.384126
			 0.895555 -0.199360  0.397790
			 0.714118 -0.241429  0.657075
			 0.059057  0.249982  0.966448
			-0.082169  0.275061  0.957909
			 0.489355  0.168193  0.855712
			 0.279501  0.236895  0.930462
			-0.039623  0.293928  0.955006
			-0.158889  0.313842  0.936086
			 0.765791 -0.126982  0.630428
			 0.770096  0.220732  0.598522
			 0.891660  0.047545  0.450203
			 0.949370 -0.093017  0.300075
			 0.592965  0.282811  0.753930
			 0.427410  0.329815  0.841750
			 0.730638  0.242713  0.638168
			 0.889833  0.186325  0.416509
			 0.704738  0.117083  0.699740
			 0.957028  0.105955  0.269946
			 0.882765  0.067169  0.464988
			 0.668107  0.277313  0.690457
			 0.751646  0.230913  0.617825
			-0.903463  0.329987  0.273612
			-0.871785  0.342467  0.350295
			 0.768242  0.428527  0.475573
			-0.420461  0.267104  0.867103
			-0.858889  0.187009  0.476799
			-0.824783  0.201187  0.528447
			-0.662658  0.238609  0.709894
			-0.161446  0.228395  0.960089
			-0.963913  0.140346  0.226219
			 0.969361  0.158569  0.187603
			-0.985742  0.106967 -0.129891
			-0.846343  0.395466  0.356806
			-0.894137  0.333247 -0.299107
			-0.938264  0.338262 -0.072382
			-0.930653  0.139765 -0.338158
			-0.919574  0.374100  0.120141
			 0.596479 -0.312976 -0.739093
			 0.653555 -0.439007 -0.616554
			 0.530311 -0.283055 -0.799156
			 0.534330 -0.209803 -0.818825
			 0.112168 -0.246388 -0.962658
			 0.294669 -0.125455 -0.947328
			 0.012980 -0.096053 -0.995292
			 0.492758 -0.178293 -0.851705
			 0.368007 -0.079593 -0.926410
			 0.272518  0.022510 -0.961887
			-0.063076  0.105580 -0.992408
			-0.220404  0.275463 -0.935704
			-0.634758 -0.245137 -0.732796
			-0.602630 -0.067003 -0.795203
			-0.378601 -0.080502 -0.922052
			-0.439224  0.215706 -0.872097
			-0.596085  0.079229 -0.799003
			-0.874555 -0.151392 -0.460689
			-0.736650 -0.179474 -0.652024
			-0.998357  0.056099  0.011644
			-0.978513 -0.039447 -0.202377
			-0.968284  0.227648  0.102968
			 0.968896 -0.221143  0.111065
			 0.962781 -0.227764 -0.145522
			 0.925445 -0.066296  0.373036
			 0.748506 -0.400977 -0.528162
			 0.109476  0.210047  0.971543
			 0.431603  0.174136  0.885096
			 0.800882  0.035664  0.597759
			 0.827737  0.182371  0.530653
			 0.967241  0.211676  0.140132
			 0.851293  0.273334  0.447870
			 0.992650  0.111757  0.046444
			 0.988073  0.097124 -0.119493
			 0.991106  0.035413 -0.128278
			 0.986435  0.043181  0.158373
			 0.986792 -0.010310  0.161663
			-0.918787  0.335363  0.208235
			-0.632242  0.190032  0.751104
			-0.410802  0.177910  0.894198
			-0.957000  0.136760  0.255828
			-0.803417  0.194381  0.562793
			-0.957908  0.132880  0.254469
			-0.913781  0.143489  0.380019
			-0.768863  0.180293  0.613468
			-0.037982  0.154032  0.987336
			-0.288001  0.115687  0.950617
			-0.994141  0.063883 -0.087198
			-0.935904 -0.033456 -0.350662
			-0.897379  0.014873 -0.441009
			-0.912962  0.398509 -0.087696
			-0.859020  0.503649 -0.091766
			-0.763926  0.521128 -0.380582
			-0.759328  0.358324 -0.543162
			-0.716800  0.135603 -0.683966
			 0.887907 -0.243423 -0.390340
			 0.659935 -0.174209 -0.730846
			 0.592182 -0.191529 -0.782711
			 0.676557 -0.112750 -0.727708
			 0.761926  0.012669 -0.647540
			 0.266176 -0.328154 -0.906347
			-0.170382 -0.269853 -0.947707
			 0.059121 -0.329326 -0.942364
			 0.347185 -0.071516 -0.935066
			 0.385578 -0.254511 -0.886879
			-0.272168  0.137229 -0.952414
			-0.299162 -0.132225 -0.944997
			 0.673898 -0.030551 -0.738192
			 0.516090 -0.015687 -0.856391
			 0.372401  0.052865 -0.926565
			-0.356231  0.391400 -0.848472
			-0.474182  0.359631 -0.803627
			-0.536035  0.531752 -0.655672
			-0.833853  0.051196 -0.549608
			-0.613828  0.497640 -0.612837
			-0.767166  0.324932 -0.553060
			-0.842224  0.214506 -0.494617
			-0.976040  0.098354 -0.194094
			-0.952458  0.270209 -0.140752
			 0.993346 -0.114937  0.007293
			 0.960254 -0.188744  0.205642
			 0.986517 -0.119821 -0.111482
			 0.909545  0.060514  0.411177
			 0.206973  0.150233  0.966743
			 0.491690  0.079493  0.867134
			 0.977683 -0.133655  0.162084
			 0.874423 -0.098281  0.475106
			 0.729229 -0.024603  0.683828
			 0.845477  0.196488  0.496549
			 0.949525  0.310026  0.047820
			 0.965401  0.240899 -0.099846
			 0.975834  0.120190 -0.182490
			 0.962863  0.220128  0.156327
			 0.907332  0.046503 -0.417835
			 0.911981  0.148041 -0.382588
			 0.894382  0.017791 -0.446950
			 0.979063 -0.004638 -0.203503
			 0.975763 -0.102288 -0.193451
			-0.800260  0.113299  0.588852
			-0.806880 -0.024303  0.590215
			-0.650171  0.115201  0.751003
			-0.567225  0.151292  0.809547
			-0.504829  0.063890  0.860852
			-0.997433  0.060811 -0.037806
			-0.903694  0.102820  0.415652
			-0.995288  0.048426  0.084002
			-0.137312  0.051990  0.989163
			 0.173890  0.093306  0.980335
			-0.356897 -0.063312  0.931996
			-0.959702 -0.116843 -0.255577
			-0.833786 -0.193316 -0.517136
			-0.733425 -0.132136 -0.666804
			-0.750656  0.583392 -0.310111
			-0.791997  0.492044 -0.361431
			-0.473714  0.188862 -0.860189
			-0.535745 -0.014269 -0.844259
			 0.932391 -0.228187 -0.280317
			 0.990020 -0.033709 -0.136835
			 0.933805 -0.045032 -0.354937
			 0.835750  0.113331 -0.537287
			 0.945210  0.165385 -0.281470
			 0.910119  0.216144 -0.353503
			 0.343406 -0.334590 -0.877566
			 0.061212 -0.402142 -0.913529
			-0.350477 -0.386312 -0.853188
			-0.500460 -0.253437 -0.827835
			 0.464222 -0.179227 -0.867396
			 0.838007  0.151965 -0.524071
			 0.620919  0.107309 -0.776495
			 0.557873  0.073361 -0.826678
			 0.992718 -0.119811  0.012475
			 0.962840  0.092315  0.253804
			 0.856186  0.172462  0.487035
			 0.362852  0.006586  0.931824
			 0.575748  0.029418  0.817098
			 0.957734 -0.207135 -0.199601
			 0.966430 -0.255070 -0.030869
			 0.960058 -0.165510  0.225598
			 0.890011 -0.147997  0.431251
			 0.686796 -0.133994  0.714393
			 0.948185  0.173276  0.266307
			 0.928484  0.237870 -0.285194
			 0.751822  0.071419 -0.655487
			 0.833322 -0.038777 -0.551426
			 0.743658  0.146313 -0.652354
			 0.864035 -0.221281 -0.452192
			-0.956363 -0.032503  0.290369
			-0.641633 -0.047541  0.765537
			-0.914986 -0.189292  0.356326
			-0.940546 -0.097777  0.325290
			-0.765813 -0.193566  0.613240
			-0.844149 -0.220052  0.488866
			-0.586945  0.059484  0.807438
			-0.509635 -0.082577  0.856419
			-0.456131 -0.117433  0.882131
			-0.995338 -0.034245 -0.090161
			-0.996859 -0.038936  0.068963
			-0.113047 -0.068524  0.991224
			 0.105889  0.001134  0.994377
			-0.398500 -0.194294  0.896353
			-0.334014 -0.207705  0.919399
			-0.228560 -0.152873  0.961452
			-0.284265 -0.109027  0.952526
			-0.752643 -0.336132 -0.566166
			-0.812033 -0.299659 -0.500806
			-0.994832 -0.079343 -0.063353
			-0.944933 -0.129075 -0.300735
			-0.658144 -0.322898 -0.680135
			 0.482974 -0.376223 -0.790691
			-0.135142 -0.404348 -0.904566
			-0.050422 -0.424885 -0.903842
			 0.188549 -0.429422 -0.883202
			 0.302839 -0.465685 -0.831520
			-0.202211 -0.396178 -0.895631
			-0.468880 -0.406589 -0.784115
			 0.694821 -0.234928 -0.679730
			 0.669990 -0.067237 -0.739319
			 0.505051 -0.013011  0.862992
			 0.369929 -0.081987  0.925435
			 0.473822 -0.104075  0.874449
			 0.217846 -0.086649  0.972129
			 0.889602 -0.275164 -0.364546
			 0.926114 -0.364274  0.098071
			 0.868839 -0.254586  0.424624
			 0.832861 -0.379796 -0.402614
			 0.526522 -0.590302  0.611815
			 0.555601 -0.416479  0.719619
			 0.696317 -0.328311 -0.638243
			-0.987361 -0.158298  0.007774
			-0.578977 -0.185476  0.793967
			-0.626446 -0.265877  0.732717
			-0.546362 -0.126462  0.827947
			-0.950574 -0.307340  0.044168
			-0.895775 -0.331713  0.295895
			-0.841607 -0.380957  0.382844
			-0.685716 -0.422515  0.592684
			-0.446639 -0.167643  0.878868
			 0.113719 -0.166879  0.979398
			-0.132589 -0.152969  0.979296
			-0.223253 -0.188169  0.956426
			-0.376402 -0.197699  0.905117
			-0.453482 -0.136858  0.880695
			-0.455024 -0.182777  0.871519
			-0.218247 -0.127661  0.967508
			-0.210662 -0.126126  0.969388
			-0.301756 -0.130944  0.944350
			-0.211072 -0.189987  0.958829
			-0.129753 -0.116020  0.984735
			-0.186098  0.073080  0.979810
			-0.206358  0.115061  0.971688
			-0.633179 -0.391315 -0.667801
			-0.520853 -0.396334 -0.756064
			-0.738901 -0.277127 -0.614187
			-0.937431 -0.150738 -0.313851
			-0.971607 -0.127805 -0.199112
			 0.708172 -0.405348 -0.578088
			 0.536649 -0.441717 -0.718953
			-0.298370 -0.401669 -0.865816
			-0.231274 -0.399431 -0.887112
			 0.067270 -0.479366 -0.875033
			 0.168374 -0.462483 -0.870494
			-0.093056 -0.342454 -0.934915
			-0.270574 -0.371797 -0.888007
			 0.336371 -0.492409 -0.802737
			 0.399027 -0.100659  0.911397
			 0.476360 -0.269950  0.836785
			 0.203013 -0.236612  0.950158
			 0.811849 -0.367486  0.453714
			 0.866653 -0.496796 -0.045895
			 0.892474 -0.420227  0.164007
			 0.700168 -0.352727 -0.620764
			 0.780790 -0.460795 -0.421942
			 0.307104 -0.764621  0.566606
			 0.382487 -0.681774  0.623608
			-0.933574 -0.225998 -0.278143
			-0.971812 -0.133058 -0.194619
			-0.491850 -0.250900  0.833746
			-0.551948 -0.194936  0.810773
			-0.701691 -0.365297  0.611709
			-0.548783 -0.183331  0.815615
			-0.606867 -0.270832  0.747236
			-0.687550 -0.315302  0.654109
			-0.893629 -0.421757  0.153452
			-0.890365 -0.451846  0.055549
			-0.924250 -0.357707 -0.133443
			-0.844063 -0.487406  0.223591
			-0.733476 -0.517669  0.440490
			-0.752463 -0.509129  0.417835
			-0.691265 -0.600349  0.402162
			 0.257750  0.040175  0.965376
			-0.567634  0.057055  0.821302
			-0.549975 -0.067435  0.832454
			 0.056163 -0.209374  0.976221
			 0.203725 -0.229325  0.951791
			 0.754559 -0.120361  0.645100
			-0.463379 -0.022377  0.885877
			-0.392600 -0.072241  0.916868
			-0.339172 -0.059751  0.938825
			-0.575673  0.113099  0.809821
			-0.556943  0.069627  0.827627
			-0.190832  0.069564  0.979155
			-0.241090  0.102779  0.965045
			-0.353274 -0.047337  0.934322
			-0.330473  0.096267  0.938893
			-0.189084  0.170666  0.967016
			 0.004474 -0.070743  0.997485
			 0.100936 -0.123944  0.987142
			 0.067235 -0.249154  0.966127
			-0.002867  0.136864  0.990586
			-0.131700  0.171181  0.976398
			-0.093451  0.323448  0.941620
			-0.125428  0.304102  0.944346
			-0.106162  0.356065  0.928411
			-0.787188 -0.251281 -0.563199
			-0.566113 -0.316787 -0.761027
			-0.844549 -0.222428 -0.487096
			-0.906385 -0.180970 -0.381729
			 0.584028 -0.483226 -0.652230
			 0.110085 -0.453464 -0.884450
			-0.151270 -0.367224 -0.917749
			-0.067926 -0.293754 -0.953465
			-0.196967 -0.221653 -0.955026
			 0.055216 -0.309454 -0.949310
			-0.525215 -0.302685 -0.795318
			-0.483417 -0.331581 -0.810162
			-0.299268 -0.381372 -0.874639
			 0.260394 -0.463894 -0.846757
			 0.441254 -0.521223 -0.730494
			 0.416668 -0.564061  0.712898
			 0.323218 -0.453620  0.830518
			 0.614174 -0.524361  0.589777
			 0.212766 -0.287766  0.933767
			 0.355373 -0.323546  0.876942
			 0.217354 -0.298274  0.929403
			 0.219161 -0.320936  0.921395
			 0.274123 -0.162630  0.947844
			 0.290455 -0.084849  0.953119
			 0.201702 -0.183564  0.962092
			 0.792818 -0.503320  0.343670
			 0.809761 -0.510686 -0.288943
			 0.744898 -0.617718  0.252096
			 0.770035 -0.562578 -0.300917
			 0.740771 -0.664545 -0.098172
			 0.651244 -0.557987 -0.514327
			-0.721612 -0.278651 -0.633743
			-0.807338 -0.374704 -0.455853
			-0.632166 -0.087453  0.769882
			-0.636699 -0.092470  0.765548
			-0.425891 -0.195959  0.883299
			-0.586007 -0.026275  0.809880
			-0.592850 -0.017265  0.805128
			-0.892043 -0.313882  0.325173
			-0.785655 -0.258164  0.562226
			-0.672311 -0.089819  0.734800
			-0.716904  0.051130  0.695294
			-0.751217 -0.269420  0.602566
			-0.886140 -0.177819  0.427944
			-0.821951 -0.551983  0.140395
			-0.824040 -0.558745 -0.093606
			-0.858418 -0.473734 -0.196710
			-0.829399 -0.550921 -0.092643
			-0.803508 -0.593910 -0.040577
			-0.771060 -0.578722  0.265608
			-0.753986 -0.629639  0.187242
			-0.851750 -0.523255 -0.026966
			-0.739024 -0.671978 -0.047847
			-0.744365 -0.666572 -0.040043
			-0.635625  0.277651  0.720341
			-0.565705  0.289839  0.771992
			 0.751596  0.069892  0.655910
			-0.755239  0.155396  0.636762
			-0.752027  0.089972  0.652963
			-0.454303  0.172390  0.874008
			-0.562237  0.248850  0.788647
			-0.416560  0.159355  0.895033
			-0.615501  0.163700  0.770948
			-0.640890  0.322639  0.696538
			-0.683118  0.404438  0.608094
			-0.197737  0.335605  0.921015
			-0.319470  0.330843  0.887965
			-0.106261  0.401086  0.909856
			 0.087217  0.115528  0.989468
			 0.321693  0.036707  0.946132
			 0.209189  0.131347  0.969014
			-0.045030  0.360551  0.931652
			 0.088065  0.407791  0.908819
			 0.015744  0.514295  0.857469
			-0.031627  0.501875  0.864362
			-0.125455  0.519996  0.844905
			 0.018576  0.542048  0.840142
			-0.704187 -0.262676 -0.659638
			-0.349651 -0.437472 -0.828470
			-0.127646 -0.412721 -0.901869
			-0.004827 -0.291688 -0.956501
			 0.018838 -0.378065 -0.925588
			-0.029228 -0.360928 -0.932136
			 0.067641 -0.285852 -0.955883
			-0.016604 -0.230964 -0.972821
			-0.275489 -0.192862 -0.941759
			-0.192986 -0.266976 -0.944182
			 0.279927 -0.385275 -0.879320
			 0.130927 -0.276371 -0.952091
			-0.571049 -0.384342 -0.725386
			 0.354081 -0.496103 -0.792785
			 0.482747 -0.560318 -0.673052
			 0.457830 -0.503382  0.732802
			 0.567180 -0.639971  0.518405
			 0.371175 -0.726494  0.578304
			 0.348878 -0.555374  0.754880
			 0.263335 -0.419901  0.868526
			 0.276615 -0.384375  0.880761
			 0.393590 -0.422180  0.816609
			 0.271525 -0.177355  0.945949
			 0.304646 -0.199413  0.931357
			 0.426599 -0.087545  0.900194
			 0.221342 -0.324247  0.919713
			 0.363376 -0.022181  0.931378
			 0.439701 -0.016064  0.898000
			 0.459402  0.156176  0.874390
			 0.644100 -0.600438  0.473929
			 0.566058 -0.822164  0.060208
			 0.540797 -0.721801  0.431904
			 0.651919 -0.624128 -0.430658
			 0.504658 -0.786298 -0.356448
			-0.672434 -0.476770 -0.566148
			-0.745856  0.195258  0.636846
			-0.742996  0.167495  0.647999
			-0.630691 -0.038270  0.775090
			-0.731843  0.387616  0.560500
			-0.691172  0.278380  0.666923
			-0.963441 -0.176690  0.201401
			-0.962995 -0.263645 -0.055972
			-0.798969  0.234659  0.553700
			-0.858885 -0.020403  0.511762
			-0.803231  0.381584  0.457398
			-0.885821 -0.172916  0.430606
			-0.963392  0.094337  0.250952
			-0.954041 -0.055100  0.294565
			-0.935908  0.005222  0.352205
			-0.976690 -0.060436  0.205970
			-0.689447 -0.722632 -0.049656
			-0.725771 -0.542862 -0.422561
			-0.681069 -0.695486 -0.229009
			-0.719267 -0.523336 -0.456918
			-0.673594 -0.622819 -0.397954
			-0.655367 -0.656270 -0.373903
			-0.863319 -0.357939 -0.355752
			-0.710197 -0.586980 -0.388683
			-0.600420 -0.709239 -0.369426
			-0.605520 -0.730268 -0.316312
			-0.699014  0.343131  0.627408
			-0.692455  0.477917  0.540464
			-0.800531  0.248131  0.545510
			-0.461074  0.431530  0.775366
			-0.574229  0.550573  0.605913
			-0.620086  0.640378  0.453222
			-0.670982  0.690539  0.270074
			-0.343085  0.486328  0.803603
			-0.232163  0.545378  0.805396
			 0.016027  0.517598  0.855474
			 0.008620  0.573408  0.819225
			 0.150228  0.349943  0.924647
			 0.377147  0.183006  0.907893
			 0.283721  0.365512  0.886512
			 0.268842  0.572768  0.774378
			 0.178452  0.633154  0.753174
			 0.130215  0.699780  0.702391
			 0.165689  0.708350  0.686139
			-0.013337  0.729177  0.684195
			-0.187212  0.777472  0.600407
			 0.145273  0.720060  0.678535
			-0.499965 -0.505089 -0.703506
			-0.219695 -0.462430 -0.859007
			 0.033097 -0.401241 -0.915374
			 0.025995 -0.435555 -0.899787
			 0.089582 -0.245947 -0.965135
			-0.005732 -0.272876 -0.962032
			-0.079721 -0.228832 -0.970196
			 0.043846 -0.268139 -0.962382
			 0.346107 -0.429987 -0.833859
			 0.410878 -0.480077 -0.775052
			 0.227991 -0.350462 -0.908403
			 0.089518 -0.249361 -0.964264
			 0.503881 -0.551562 -0.664743
			 0.576180 -0.577331  0.578537
			 0.680470 -0.403627  0.611592
			 0.621671 -0.353022  0.699214
			 0.770689 -0.341402  0.538037
			 0.381847 -0.892508  0.240048
			 0.302622 -0.889630  0.342020
			 0.322545 -0.683401  0.654926
			 0.427449 -0.764669  0.482254
			 0.517821 -0.231194  0.823657
			 0.448230 -0.186953  0.874150
			 0.454013 -0.243967  0.856944
			 0.482264 -0.098713  0.870446
			 0.589027  0.033623  0.807413
			 0.709125  0.079454  0.700592
			 0.601871  0.058840  0.796423
			 0.568427  0.211243  0.795152
			 0.474168  0.375764  0.796220
			 0.515648  0.349103  0.782454
			 0.606678  0.325247  0.725366
			 0.381552 -0.918860 -0.100571
			 0.525974 -0.827370  0.197001
			 0.520962 -0.521882 -0.675453
			 0.471335 -0.656109 -0.589376
			 0.414704 -0.906496 -0.079279
			 0.377715 -0.855195 -0.354926
			 0.479255 -0.700292 -0.529061
			-0.790936  0.466803  0.395622
			-0.762091  0.543551  0.351808
			-0.740240  0.416215  0.528025
			-0.992983 -0.092123 -0.074147
			-0.932419 -0.135757 -0.334910
			-0.803297  0.499181  0.324859
			-0.861425  0.330343  0.385772
			-0.820606  0.491779  0.291135
			-0.911432 -0.002755  0.411441
			-0.893428  0.285451  0.346848
			-0.789727  0.568747  0.229908
			-0.972375  0.149256  0.179472
			-0.955311  0.268787  0.123022
			-0.915052  0.397182  0.070185
			-0.927771  0.291140  0.233407
			-0.990937  0.132675  0.020994
			-0.536024 -0.540258 -0.648690
			-0.503921 -0.520018 -0.689670
			-0.554089 -0.515529 -0.653617
			-0.753254 -0.475959 -0.453951
			-0.517957 -0.537649 -0.665323
			-0.680486 -0.580219 -0.447531
			-0.491655 -0.761558 -0.422261
			-0.642315 -0.484770 -0.593658
			-0.859082 -0.132523 -0.494384
			-0.795071 -0.215939 -0.566774
			-0.528916 -0.678989 -0.509138
			-0.594797 -0.666664 -0.449194
			-0.715881  0.595692  0.364233
			-0.477447  0.689419  0.544744
			-0.533387  0.766045  0.358710
			-0.476151  0.877678  0.054424