<?xml version="1.0"?>
<VTKFile type="PolyData" version="0.1" byte_order="LittleEndian" compressor="vtkZLibDataCompressor">
	<PolyData>
		<Piece NumberOfPoints="3280" NumberOfVerts="0" NumberOfLines="0" NumberOfStrips="0" NumberOfPolys="6556">
		<PointData Normals="Normals">
		<DataArray type="Float32" Name="Normals" NumberOfComponents="3" format="ascii">
			-0.544330 -0.016417 -0.838711
			-0.552837  0.026086 -0.832881
			-0.682969  0.042731 -0.729197
			-0.737079  0.000905 -0.675806
			-0.363464 -0.033971 -0.930989
			-0.619470 -0.045735 -0.783687
			-0.467467 -0.044199 -0.882905
			-0.498902  0.015426 -0.866521
			-0.818149  0.064798 -0.571343
			-0.839332  0.069248 -0.539190
			-0.697994  0.049964 -0.714359
			-0.743098  0.065376 -0.665982
			-0.680983 -0.043408 -0.731011
			-0.804379  0.025166 -0.593583
			-0.854458  0.064927 -0.515447
			-0.199052 -0.028430 -0.979576
			-0.291367 -0.093794 -0.952002
			 0.055570 -0.064822 -0.996348
			-0.517789 -0.048553 -0.854129
			-0.510553  0.011432 -0.859770
			-0.184938 -0.019255 -0.982562
			-0.391380  0.017973 -0.920053
			-0.873780  0.092910 -0.477364
			-0.849556  0.084466 -0.520692
			-0.899199  0.102843 -0.425283
			-0.908753  0.073524 -0.410807
			-0.840508  0.067666 -0.537557
			-0.767537  0.045183 -0.639410
			-0.924439  0.096997 -0.368788
			-0.935696  0.090715 -0.340946
			-0.654183  0.037701 -0.755396
			-0.756234  0.061111 -0.651441
			 0.263853  0.170782 -0.949323
			 0.970242  0.019005 -0.241392
			-0.610053 -0.048354 -0.790884
			-0.918720  0.077889 -0.387152
			-0.815680  0.009532 -0.578425
			-0.882957  0.062185 -0.465317
			-0.918922  0.089064 -0.384253
			 0.100916 -0.062795 -0.992911
			 0.091676 -0.116658 -0.988932
			-0.047502 -0.120179 -0.991615
			-0.085765 -0.114976 -0.989659
			-0.434941 -0.102624 -0.894592
			-0.116531 -0.133519 -0.984171
			 0.293207 -0.130692 -0.947074
			 0.383215 -0.089024 -0.919359
			-0.455954  0.029116 -0.889527
			-0.284127  0.031856 -0.958257
			 0.216121 -0.067450 -0.974034
			 0.071265 -0.000436 -0.997457
			-0.878360  0.122459 -0.462047
			-0.962517  0.161308 -0.218040
			-0.945839  0.138929 -0.293406
			-0.898928  0.121261 -0.420981
			-0.950859  0.105545 -0.291080
			-0.787707  0.064664 -0.612647
			-0.796607  0.118277 -0.592813
			-0.968460  0.148784 -0.199872
			-0.980254  0.136219 -0.143339
			-0.815029  0.090777 -0.572265
			-0.756297  0.100953 -0.646393
			-0.610712  0.069236 -0.788820
			-0.427389  0.055085 -0.902388
			 0.239004  0.128390 -0.962493
			-0.710239 -0.036826 -0.702996
			-0.938025  0.101936 -0.331237
			-0.870902  0.024732 -0.490833
			-0.844949  0.029026 -0.534058
			-0.960221  0.129551 -0.247369
			-0.956353  0.065794 -0.284709
			-0.964512  0.108005 -0.240940
			-0.944331  0.119205 -0.306641
			 0.320068 -0.067573 -0.944982
			 0.164339 -0.133767 -0.977292
			-0.513155 -0.108190 -0.851450
			-0.389878 -0.113169 -0.913886
			 0.134419 -0.156903 -0.978424
			 0.076035 -0.158159 -0.984482
			-0.103926 -0.158815 -0.981823
			 0.368645 -0.142932 -0.918516
			 0.460157 -0.150213 -0.875038
			 0.514988 -0.133308 -0.846768
			 0.472768 -0.078937 -0.877644
			 0.551324 -0.110716 -0.826912
			-0.351937  0.045034 -0.934940
			-0.137577  0.032160 -0.989969
			 0.343747 -0.067001 -0.936669
			 0.427994 -0.069004 -0.901144
			 0.173159 -0.014202 -0.984792
			-0.984921  0.140501 -0.100948
			-0.983794  0.178688 -0.014852
			-0.981197  0.174486  0.082506
			-0.943244  0.143301 -0.299594
			-0.969005  0.147290 -0.198329
			-0.879315  0.115055 -0.462134
			-0.896572  0.112306 -0.428424
			-0.936543  0.138095 -0.322208
			-0.980292  0.142106 -0.137238
			-0.849043  0.105782 -0.517625
			 0.260194  0.206295 -0.943261
			 0.242109  0.211079 -0.947010
			-0.983685  0.179585 -0.010633
			-0.984132  0.152228  0.091158
			-0.975531  0.168887  0.140769
			-0.852711  0.109078 -0.510867
			-0.849965  0.115641 -0.513990
			-0.780954  0.139257 -0.608867
			-0.774775  0.142951 -0.615864
			-0.675409  0.121590 -0.727351
			-0.548822  0.101675 -0.829732
			-0.345901  0.056905 -0.936544
			-0.089924  0.019225 -0.995763
			-0.088366  0.027983 -0.995695
			-0.792473 -0.015926 -0.609699
			-0.830479  0.007171 -0.557004
			-0.609120 -0.065672 -0.790354
			-0.894216  0.041827 -0.445678
			-0.980282  0.164202 -0.109930
			-0.983700  0.158433 -0.085043
			-0.961315  0.146551 -0.233230
			-0.978183  0.129211 -0.162671
			-0.983179  0.174619  0.053550
			-0.947940  0.055346 -0.313602
			-0.986595  0.078353 -0.143144
			-0.988467  0.119728 -0.092727
			 0.305308 -0.165511 -0.937760
			 0.405741 -0.190697 -0.893873
			 0.358717 -0.160020 -0.919628
			 0.411499 -0.185020 -0.892433
			-0.536948 -0.103070 -0.837295
			-0.318858 -0.116546 -0.940610
			 0.315194 -0.190738 -0.929662
			 0.145698 -0.188853 -0.971137
			 0.044888 -0.175339 -0.983484
			 0.136972 -0.200216 -0.970130
			-0.083635 -0.181028 -0.979915
			 0.034234 -0.188561 -0.981465
			 0.613776 -0.191067 -0.766010
			 0.587602 -0.174363 -0.790140
			 0.684260 -0.129779 -0.717597
			 0.588736 -0.118238 -0.799631
			 0.554336 -0.079933 -0.828445
			 0.592950 -0.120974 -0.796100
			 0.551040 -0.098357 -0.828662
			 0.686629 -0.123314 -0.716474
			 0.470812 -0.097255 -0.876857
			 0.414667 -0.052671 -0.908448
			 0.280332 -0.029476 -0.959450
			-0.984387  0.156129 -0.081274
			-0.987821  0.149096 -0.044497
			-0.989198  0.146275 -0.009552
			-0.923265  0.182078  0.338275
			-0.834074  0.192926  0.516817
			-0.948012  0.184303  0.259433
			-0.974998  0.181226  0.128595
			-0.980940  0.150549 -0.122845
			-0.827621  0.146876 -0.541730
			-0.895370  0.130771 -0.425690
			-0.948680  0.149825 -0.278495
			-0.970886  0.166397 -0.172317
			-0.984819  0.165917  0.051015
			-0.978581  0.157172  0.132953
			 0.255891  0.238836 -0.936737
			-0.960053  0.161122  0.228774
			-0.899517  0.160286  0.406420
			-0.878957  0.136249 -0.457025
			-0.862629  0.124800 -0.490200
			-0.870331  0.158601 -0.466228
			-0.759998  0.139378 -0.634805
			-0.773827  0.184913 -0.605805
			-0.657775  0.144211 -0.739280
			-0.387909  0.085725 -0.917703
			-0.551254  0.139739 -0.822552
			-0.022574  0.021029 -0.999524
			 0.167670 -0.038837 -0.985078
			 0.156600 -0.021496 -0.987428
			-0.784638 -0.014871 -0.619776
			-0.867120  0.049450 -0.495639
			-0.655401 -0.071722 -0.751868
			-0.981342  0.172274  0.085379
			-0.983820  0.176225 -0.032286
			-0.972581  0.203766  0.112095
			-0.910336  0.213292  0.354676
			-0.968134  0.212180  0.133025
			-0.979154  0.201010  0.029189
			-0.826593  0.216469  0.519505
			-0.902733  0.220357  0.369480
			-0.968888  0.242772 -0.048136
			-0.983893  0.176123 -0.030589
			-0.995408  0.063447 -0.071681
			-0.938714  0.004387 -0.344670
			-0.867267 -0.030065 -0.496935
			-0.993851  0.109544  0.016110
			-0.987980  0.149017  0.041114
			 0.500449 -0.191514 -0.844318
			 0.603405 -0.191419 -0.774119
			 0.551113 -0.177668 -0.815297
			 0.562768 -0.221530 -0.796377
			-0.681384 -0.088668 -0.726535
			-0.646221 -0.113001 -0.754738
			-0.389014 -0.150587 -0.908841
			 0.305125 -0.214055 -0.927944
			 0.493360 -0.222154 -0.840978
			 0.369233 -0.233706 -0.899471
			 0.378025 -0.268412 -0.886032
			 0.116177 -0.213801 -0.969944
			-0.211727 -0.222257 -0.951721
			 0.171174 -0.265956 -0.948666
			 0.109870 -0.280897 -0.953428
			 0.712262 -0.166228 -0.681946
			 0.727328 -0.167124 -0.665630
			 0.859100 -0.132450 -0.494372
			 0.868158 -0.111740 -0.483546
			 0.552614 -0.077842 -0.829794
			 0.641610 -0.112246 -0.758774
			 0.778544 -0.107880 -0.618248
			 0.853858 -0.144701 -0.499988
			 0.583961 -0.044023 -0.810587
			 0.457815 -0.058030 -0.887151
			 0.293065 -0.025084 -0.955763
			-0.821488  0.152803  0.549372
			-0.675079  0.153826  0.721531
			-0.887912  0.204016  0.412297
			-0.631818  0.166756  0.756967
			-0.704092  0.188008  0.684769
			-0.633918  0.170202  0.754440
			-0.791206  0.188496  0.581776
			-0.946799  0.202664  0.249997
			-0.940292  0.169171 -0.295350
			-0.950873  0.162363 -0.263589
			-0.981723  0.153442 -0.112584
			-0.908430  0.180174  0.377217
			-0.981354  0.175964  0.077335
			-0.879689  0.190189  0.435862
			-0.776177  0.184448  0.602932
			-0.755724  0.152485  0.636891
			-0.899261  0.139541 -0.414558
			-0.871907  0.164183 -0.461326
			-0.825822  0.195535 -0.528946
			-0.899764  0.156277 -0.407433
			-0.808553  0.145944 -0.570037
			-0.912227  0.142645 -0.384051
			-0.822345  0.188335 -0.536915
			-0.719894  0.137330 -0.680362
			-0.842439  0.190426 -0.504018
			-0.636110  0.128188 -0.760876
			-0.398408  0.125845 -0.908534
			-0.110956  0.099453 -0.988837
			-0.624777  0.147360 -0.766772
			-0.502610  0.150532 -0.851307
			-0.444840  0.126774 -0.886592
			 0.269972  0.051538 -0.961488
			 0.071845  0.068409 -0.995067
			-0.733698 -0.064140 -0.676442
			-0.956492  0.213687  0.198648
			-0.780282  0.214718  0.587415
			-0.890382  0.222671  0.397035
			 0.116650  0.957900  0.262337
			 0.934865  0.288958  0.206229
			 0.945908  0.319673 -0.055376
			-0.809417  0.205527  0.550093
			-0.656892  0.219304  0.721386
			-0.593319  0.184189  0.783611
			-0.640294  0.194874  0.742999
			-0.783383  0.242074  0.572461
			-0.755914  0.219241  0.616869
			-0.992210  0.011664 -0.124031
			-0.989261  0.113373  0.092247
			-0.980432  0.103853  0.167236
			-0.999253  0.036893  0.011537
			-0.990748  0.031885 -0.131919
			-0.790912 -0.048263 -0.610023
			-0.809079 -0.042338 -0.586173
			-0.921317 -0.042612 -0.386470
			-0.788099 -0.065660 -0.612036
			-0.983158  0.025022 -0.181036
			-0.959344  0.246243  0.137925
			-0.941434  0.183428  0.282943
			-0.975810  0.136576  0.170708
			 0.676847 -0.189730 -0.711253
			 0.813788 -0.176146 -0.553824
			-0.606822 -0.144816 -0.781534
			-0.379159 -0.177978 -0.908054
			 0.668847 -0.231412 -0.706465
			 0.573199 -0.300794 -0.762211
			 0.340473 -0.316571 -0.885359
			 0.478196 -0.336637 -0.811175
			 0.310968 -0.258527 -0.914583
			-0.094937 -0.297128 -0.950106
			-0.159729 -0.252951 -0.954202
			 0.077454 -0.285385 -0.955278
			 0.178146 -0.330344 -0.926896
			 0.919067 -0.131327 -0.371576
			 0.977422 -0.068223 -0.199982
			 0.974975 -0.116980 -0.189049
			 0.933653 -0.113816 -0.339614
			 0.967388 -0.093786 -0.235295
			 0.647452 -0.051788 -0.760344
			 0.710681 -0.162990 -0.684374
			 0.729676 -0.111790 -0.674593
			 0.739034 -0.088158 -0.667875
			 0.910347 -0.108416 -0.399393
			 0.779108 -0.160267 -0.606057
			 0.948117 -0.080068 -0.307673
			 0.935531 -0.078841 -0.344334
			 0.606213 -0.043185 -0.794129
			 0.704193 -0.028367 -0.709441
			 0.698209 -0.049171 -0.714204
			 0.692678 -0.038989 -0.720192
			 0.566326 -0.015791 -0.824030
			 0.444426 -0.018102 -0.895633
			-0.403353  0.185966  0.895948
			-0.500221  0.151119  0.852609
			-0.499634  0.170072  0.849377
			-0.784216  0.202194  0.586619
			-0.677824  0.195522  0.708750
			-0.667869  0.213552  0.712984
			-0.337260  0.141535  0.930711
			-0.414830  0.157801  0.896111
			-0.491882  0.180047  0.851842
			-0.938977  0.150708 -0.309207
			-0.958936  0.154192 -0.238046
			-0.963190  0.174630 -0.204374
			-0.958390  0.145494 -0.245601
			-0.981513  0.151702 -0.116702
			-0.928520  0.199683  0.313013
			-0.825674  0.175587  0.536126
			-0.735819  0.180768  0.652605
			-0.735572  0.230627  0.636981
			-0.983199  0.178852 -0.036503
			-0.576047  0.189614  0.795121
			-0.652086  0.191478  0.733567
			-0.496026  0.217740  0.840564
			 0.804863  0.216502 -0.552559
			-0.813877  0.179616 -0.552577
			-0.876052  0.211068 -0.433570
			-0.839538  0.220654 -0.496476
			 0.222035  0.322497 -0.920161
			-0.947402  0.177342 -0.266419
			-0.964782  0.148528 -0.217108
			-0.872017  0.206159 -0.443942
			-0.717522  0.201450 -0.666769
			-0.233894  0.126481 -0.964000
			 0.246099  0.115697 -0.962315
			 0.081727  0.124856 -0.988803
			 0.091347  0.110155 -0.989708
			-0.566030  0.187976 -0.802668
			-0.643823  0.189217 -0.741410
			-0.266460  0.152661 -0.951679
			-0.308601  0.123958 -0.943080
			-0.448842  0.160157 -0.879142
			 0.495104  0.074893 -0.865600
			-0.613511  0.211876  0.760731
			-0.795678  0.242419  0.555095
			-0.670292  0.218577  0.709177
			-0.730132  0.243614  0.638404
			-0.416992  0.178852  0.891140
			-0.513475  0.176371  0.839784
			-0.414266  0.152312  0.897321
			-0.511754  0.188379  0.838225
			-0.649336  0.247529  0.719091
			-0.977027  0.160165  0.140593
			-0.960600  0.137855  0.241337
			-0.975630  0.079587  0.204479
			-0.951284  0.121421  0.283401
			-0.979765 -0.024793 -0.198611
			-0.990055  0.030905  0.137247
			-0.999928 -0.011622 -0.003041
			-0.990103 -0.037993 -0.135100
			-0.984186 -0.026690 -0.175118
			-0.785085 -0.110858 -0.609386
			-0.907619 -0.084556 -0.411191
			-0.836622 -0.089278 -0.540456
			-0.808457  0.200966  0.553182
			-0.907797  0.194790  0.371432
			-0.962691  0.196358  0.186196
			 0.880844 -0.182553 -0.436794
			 0.955313 -0.132963 -0.264004
			-0.772976 -0.131768 -0.620600
			-0.574752 -0.187775 -0.796493
			-0.430280 -0.223983 -0.874466
			-0.305210 -0.268991 -0.913505
			 0.720516 -0.229554 -0.654341
			 0.807035 -0.200533 -0.555411
			 0.699157 -0.299144 -0.649378
			 0.665232 -0.354112 -0.657321
			 0.748695 -0.307613 -0.587222
			 0.511404 -0.388174 -0.766673
			 0.313267 -0.428432 -0.847532
			 0.005900 -0.262791 -0.964835
			 0.021313 -0.269717 -0.962704
			-0.097206 -0.331286 -0.938510
			 0.137244 -0.276647 -0.951121
			 0.097890 -0.280713 -0.954787
			 0.143082 -0.411529 -0.900096
			 0.027793 -0.360000 -0.932538
			 0.993374 -0.096978 -0.061674
			 0.997046 -0.067462  0.036720
			 0.996880 -0.073067 -0.029864
			 0.990836 -0.036634  0.130005
			 0.994850 -0.101363  0.000009
			 0.993665 -0.090963 -0.065999
			 0.736471 -0.060807 -0.673731
			 0.865459 -0.066276 -0.496577
			 0.884713 -0.148361 -0.441896
			 0.762462 -0.082045 -0.641810
			 0.982033 -0.093411 -0.163966
			 0.982052 -0.076731 -0.172298
			 0.996934 -0.058866 -0.051551
			 0.692414 -0.030973 -0.720835
			 0.743405 -0.062055 -0.665957
			 0.775341 -0.061317 -0.628559
			 0.723867 -0.027201 -0.689403
			 0.832138 -0.053120 -0.552018
			 0.842941 -0.042339 -0.536338
			 0.697436  0.008887 -0.716592
			 0.590401  0.062497 -0.804687
			 0.971453  0.044405  0.233039
			 0.758359  0.117794  0.641105
			-0.261496  0.172161  0.949727
			-0.326400  0.132428  0.935909
			-0.590348  0.194141  0.783453
			-0.476619  0.158882  0.864634
			-0.607038  0.213578  0.765434
			-0.165988  0.118031  0.979039
			-0.265843  0.112151  0.957471
			-0.155753  0.111136  0.981524
			-0.190034  0.137215  0.972142
			-0.323769  0.137115  0.936148
			-0.356592  0.149021  0.922299
			-0.814545  0.239296  0.528445
			-0.839823  0.222571  0.495136
			-0.968823  0.222322  0.109337
			-0.889254  0.265467  0.372497
			-0.657317  0.188744  0.729595
			-0.974859  0.221823 -0.021060
			-0.970330  0.207965 -0.123327
			-0.331430  0.150298  0.931431
			-0.303443  0.123664  0.944791
			-0.469090  0.176017  0.865432
			-0.450254  0.179273  0.874718
			-0.523984  0.185119  0.831367
			 0.755676  0.146118  0.638438
			 0.235551  0.392718 -0.888981
			-0.794745  0.218341 -0.566310
			-0.879900  0.276104 -0.386708
			-0.903171  0.229382 -0.362859
			-0.907174  0.177699 -0.381389
			-0.817387  0.308406 -0.486584
			-0.891312  0.178924 -0.416592
			-0.970998  0.219536 -0.094696
			-0.924850  0.176082 -0.337116
			-0.933872  0.180852 -0.308504
			-0.901697  0.176799 -0.394568
			-0.637639  0.317337 -0.701936
			-0.628976  0.213005 -0.747675
			 0.359529  0.116619 -0.925818
			 0.014949  0.143733 -0.989504
			 0.215516  0.128111 -0.968060
			-0.490354  0.256724 -0.832854
			-0.218427  0.026080 -0.975505
			-0.294671  0.105194 -0.949791
			-0.098630  0.070561 -0.992619
			-0.332354  0.178621 -0.926086
			 0.321816  0.127386 -0.938194
			 0.495601  0.101320 -0.862620
			-0.633925  0.177955  0.752643
			-0.399574  0.198129  0.895034
			-0.507843  0.191964  0.839789
			-0.466849  0.185500  0.864663
			-0.208951  0.133509  0.968770
			-0.327683  0.145528  0.933512
			-0.250370  0.146735  0.956966
			-0.961138  0.175369  0.213213
			-0.949659  0.141999  0.279255
			-0.968236  0.027172  0.248557
			-0.945344  0.113491  0.305688
			-0.995262 -0.070908  0.066524
			-0.996152 -0.028906 -0.082742
			-0.906968 -0.138714 -0.397703
			-0.954707 -0.139595 -0.262768
			-0.774131 -0.181924 -0.606321
			-0.780364  0.194589  0.594279
			-0.851285  0.224898  0.474063
			-0.915941  0.168562  0.364195
			 0.985323 -0.120784 -0.120620
			 0.883849 -0.203873 -0.421006
			 0.993695 -0.111690  0.009795
			-0.423511 -0.299465 -0.854962
			-0.597179 -0.255080 -0.760467
			-0.364842 -0.340711 -0.866491
			 0.876447 -0.354446 -0.325897
			 0.732504 -0.412112 -0.541850
			 0.911756 -0.245229 -0.329490
			 0.607741 -0.449727 -0.654520
			 0.462384 -0.473881 -0.749425
			 0.429219 -0.425587 -0.796647
			 0.518320 -0.476598 -0.710070
			-0.012658 -0.422545 -0.906253
			-0.064741 -0.514435 -0.855082
			-0.208731 -0.500958 -0.839924
			 0.135440 -0.409699 -0.902110
			 0.969943 -0.055170  0.236993
			 0.941240 -0.023889  0.336893
			 0.973133 -0.040162  0.226713
			 0.911061  0.001604  0.412267
			 0.973577  0.001505 -0.228354
			 0.977941 -0.031106 -0.206553
			 0.998084 -0.048003 -0.039030
			 0.997924 -0.062706  0.014701
			 0.995844 -0.046011  0.078603
			 0.999081 -0.039535 -0.016575
			 0.979420 -0.020740  0.200764
			 0.755307 -0.037058 -0.654322
			 0.762535 -0.054739 -0.644626
			 0.884016 -0.068489 -0.462412
			 0.923902 -0.044263 -0.380060
			 0.910003 -0.033649 -0.413235
			 0.975920 -0.033121 -0.215597
			 0.695280  0.033556 -0.717955
			 0.772849 -0.015965 -0.634389
			 0.875698 -0.015819 -0.482600
			 0.616124  0.120292 -0.778410
			 0.698103  0.146420  0.700866
			-0.386676  0.165237  0.907292
			-0.144909  0.124145  0.981626
			-0.390862  0.155262  0.907260
			-0.119955  0.101239  0.987604
			-0.027414  0.122696  0.992066
			-0.044563  0.117902  0.992025
			-0.047416  0.123287  0.991238
			-0.071444  0.110549  0.991300
			-0.038178  0.112039  0.992970
			 0.116871  0.115306  0.986431
			-0.065010  0.132032  0.989111
			-0.220165  0.135926  0.965946
			-0.799643  0.209408  0.562779
			-0.655743  0.199677  0.728101
			-0.688349  0.290658  0.664600
			-0.706217  0.199455  0.679320
			-0.970854  0.231156  0.063314
			-0.711389  0.348466  0.610325
			-0.938319  0.319751  0.131590
			-0.828903  0.382854  0.407850
			-0.187695  0.108098  0.976261
			-0.376432  0.150987  0.914058
			-0.295207  0.177712  0.938760
			-0.371621  0.147941  0.916521
			-0.333722  0.111877  0.936009
			-0.195459  0.168865  0.966064
			-0.273532  0.170577  0.946617
			-0.359501  0.173690  0.916837
			-0.247851  0.207709  0.946270
			-0.491642  0.236896  0.837955
			-0.929080  0.268679 -0.254207
			-0.913339  0.296730 -0.278861
			-0.918091  0.222843 -0.327794
			-0.768291  0.398621 -0.500830
			-0.865757  0.330697 -0.375638
			-0.963553  0.227487 -0.140769
			-0.497001  0.361122 -0.789038
			-0.381568  0.344280 -0.857833
			-0.577969  0.425142 -0.696567
			 0.198985  0.079786 -0.976749
			-0.395288  0.307178 -0.865673
			-0.321254  0.238426 -0.916487
			-0.205088  0.144451 -0.968025
			 0.004548  0.064169 -0.997929
			-0.026647 -0.000462 -0.999645
			 0.170982  0.021508 -0.985039
			-0.243360  0.189734 -0.951198
			 0.368171  0.081417 -0.926186
			-0.315675  0.215485  0.924076
			-0.493070  0.194198  0.848038
			-0.725185  0.186234  0.662890
			-0.167695  0.165039  0.971926
			-0.315845  0.200399  0.927406
			-0.085515  0.180088  0.979926
			-0.142262  0.125159  0.981884
			-0.034157  0.123420  0.991767
			-0.066776  0.118517  0.990704
			-0.058763  0.135647  0.989013
			 0.020413  0.139212  0.990052
			 0.021257  0.122457  0.992246
			 0.018246  0.119145  0.992709
			-0.948120  0.047851  0.314290
			-0.900202 -0.128041  0.416224
			-0.927895 -0.032053  0.371461
			-0.963507 -0.117840  0.240351
			-0.923166  0.139019  0.358383
			-0.952100  0.016161  0.305358
			-0.899963  0.082152  0.428156
			-0.901681  0.132999  0.411440
			-0.987209 -0.159131 -0.009812
			-0.973612 -0.150186 -0.171824
			-0.732097 -0.228197 -0.641841
			-0.762912 -0.249912 -0.596246
			-0.919129 -0.171047 -0.354887
			-0.791492  0.145960  0.593495
			-0.889606  0.130381  0.437723
			 0.986204 -0.063770  0.152761
			 0.955520 -0.076274  0.284893
			 0.989367 -0.136809  0.049356
			 0.980114 -0.149540 -0.130440
			 0.967139 -0.151132 -0.204452
			 0.967324 -0.073155  0.242763
			-0.453893 -0.426199 -0.782519
			-0.618049 -0.328819 -0.714068
			-0.492690 -0.415264 -0.764730
			-0.416019 -0.494458 -0.763177
			 0.797587 -0.448736 -0.403101
			 0.882462 -0.449572 -0.138365
			 0.921863 -0.387514  0.001332
			 0.936388 -0.281602 -0.209473
			 0.940067 -0.324558 -0.104581
			 0.974601 -0.166942 -0.149275
			 0.963514 -0.211066 -0.164594
			 0.790383 -0.493197 -0.363390
			 0.647659 -0.481508 -0.590499
			 0.587627 -0.470860 -0.658016
			 0.630318 -0.338811 -0.698503
			 0.422135 -0.354115 -0.834508
			 0.158428 -0.477480 -0.864241
			-0.029919 -0.669466 -0.742240
			-0.365325 -0.573623 -0.733140
			-0.138811 -0.655986 -0.741899
			 0.853566  0.010026  0.520888
			 0.912384 -0.019497  0.408872
			 0.830868  0.026252  0.555850
			 0.925562 -0.005912  0.378549
			 0.872765  0.002768  0.488133
			 0.851427  0.009524  0.524387
			 0.988472 -0.023611 -0.149550
			 0.996334 -0.029552  0.080278
			 0.999259 -0.024690  0.029512
			 0.993705 -0.066732 -0.089986
			 0.992044 -0.018435  0.124532
			 0.976046 -0.031462  0.215279
			 0.937552  0.006093  0.347791
			 0.929294 -0.001516  0.369338
			 0.942685  0.011160  0.333499
			 0.964592 -0.052201 -0.258529
			 0.990759 -0.047801 -0.126929
			 0.997778 -0.006361 -0.066321
			 0.998942 -0.009874 -0.044912
			 0.807357 -0.009881 -0.589980
			 0.783246  0.076746 -0.616956
			 0.977321  0.010046 -0.211526
			 0.970159 -0.040909 -0.238992
			 0.903691 -0.043382 -0.425981
			 0.975617 -0.012412 -0.219129
			 0.715824  0.232533 -0.658426
			 0.500543  0.194856 -0.843497
			 0.756429  0.131931 -0.640632
			 0.789074  0.218471 -0.574137
			-0.283752  0.159790  0.945490
			-0.139533  0.154516  0.978088
			-0.065967  0.116557  0.990991
			-0.148645  0.137221  0.979324
			-0.112976  0.114181  0.987015
			 0.208654  0.090620  0.973782
			 0.275712  0.082038  0.957733
			-0.163218  0.127124  0.978366
			-0.087765  0.120364  0.988843
			 0.031591  0.090797  0.995368
			 0.130179  0.112802  0.985053
			-0.026697  0.115173  0.992987
			 0.112232  0.129411  0.985219
			 0.155282  0.088400  0.983907
			 0.491299  0.072048  0.868006
			 0.407056  0.078906  0.909989
			 0.443175  0.100574  0.890775
			-0.044500  0.090713  0.994882
			-0.547267  0.289946  0.785130
			-0.490905  0.277495  0.825838
			-0.536816  0.338213  0.772943
			-0.721757  0.379481  0.578845
			-0.936019  0.349420 -0.042111
			-0.888019  0.399122  0.228306
			-0.768652  0.378819  0.515432
			-0.208073  0.126420  0.969909
			-0.095326  0.113550  0.988949
			-0.122485  0.128198  0.984156
			-0.029005  0.090104  0.995510
			-0.068026  0.095122  0.993139
			-0.136162  0.102782  0.985340
			-0.183181  0.145187  0.972299
			-0.311261  0.148900  0.938587
			-0.290443  0.194739  0.936867
			-0.238990  0.176369  0.954871
			-0.256595  0.152556  0.954403
			-0.102124  0.165401  0.980925
			-0.967341  0.232475 -0.101034
			-0.962641  0.155466 -0.221703
			-0.969939  0.215987 -0.112107
			-0.895402  0.304354 -0.324997
			-0.912344  0.079351 -0.401662
			-0.873938  0.223017 -0.431852
			-0.928203  0.298396 -0.222260
			-0.884740  0.357717 -0.298787
			-0.745984  0.435120 -0.504162
			-0.911223  0.366704 -0.187621
			-0.675837  0.433589 -0.596025
			-0.212354  0.231953 -0.949265
			-0.335066  0.350331 -0.874642
			-0.271634  0.225292 -0.935659
			-0.646052  0.413261 -0.641742
			-0.449630  0.365045 -0.815215
			-0.064720  0.150088 -0.986552
			 0.122341  0.094536 -0.987976
			 0.161871  0.052612 -0.985408
			 0.231853  0.091172 -0.968469
			-0.244988  0.210582  0.946381
			-0.007424  0.204827  0.978770
			 0.040264  0.223849  0.973792
			-0.039796  0.207752  0.977372
			-0.488908  0.193592  0.850583
			-0.395284  0.218636  0.892160
			-0.600297  0.200346  0.774277
			 0.079302  0.161663  0.983654
			-0.001468  0.092825  0.995681
			 0.064569  0.131829  0.989167
			 0.283596  0.125186  0.950738
			 0.224786  0.149213  0.962916
			-0.908042 -0.203182  0.366301
			-0.897939 -0.197320  0.393408
			-0.854988 -0.178895  0.486818
			-0.969290 -0.154447  0.191370
			-0.964141 -0.106066  0.243274
			-0.955298 -0.124426  0.268188
			-0.981975 -0.176652  0.067227
			-0.955557 -0.071707  0.285951
			-0.709209  0.129450  0.693012
			-0.746865  0.157200  0.646128
			-0.671819  0.022610  0.740370
			-0.870400 -0.027467  0.491578
			-0.699003  0.150830  0.699032
			-0.934560 -0.119403 -0.335173
			-0.950413 -0.162271 -0.265297
			-0.942804 -0.102669 -0.317144
			-0.708431 -0.252530 -0.659056
			-0.877270 -0.143277 -0.458114
			-0.581988  0.183010  0.792337
			 0.987892 -0.134347  0.077583
			 0.952465 -0.103041  0.286694
			 0.844362 -0.015285  0.535555
			 0.863236 -0.038914  0.503298
			 0.839681 -0.009003  0.543005
			 0.989732 -0.135982  0.044029
			 0.990447 -0.127161  0.053340
			-0.532741 -0.415972 -0.736990
			-0.559593 -0.468327 -0.683758
			-0.521091 -0.448817 -0.725967
			-0.468492 -0.526791 -0.709229
			-0.781327 -0.261859 -0.566531
			-0.832375 -0.163516 -0.529542
			-0.819530 -0.202627 -0.536015
			-0.510034 -0.521961 -0.683682
			-0.520047 -0.546477 -0.656440
			-0.567414 -0.478346 -0.670243
			-0.458528 -0.511288 -0.726868
			 0.900208 -0.431738 -0.056817
			 0.941790 -0.333801  0.040107
			 0.972359 -0.231444 -0.030848
			 0.984967 -0.155194 -0.075863
			 0.989425 -0.135811  0.050928
			 0.764930 -0.518301 -0.382422
			 0.722908 -0.416451 -0.551336
			 0.621926 -0.305161 -0.721170
			 0.624820 -0.381185 -0.681394
			 0.635307 -0.336004 -0.695332
			 0.452082 -0.421800 -0.785943
			 0.325708 -0.588888 -0.739679
			 0.114812 -0.686666 -0.717850
			-0.033485 -0.652273 -0.757244
			-0.334534 -0.608298 -0.719764
			-0.082569 -0.567720 -0.819070
			 0.659461  0.055825  0.749663
			 0.799833  0.007907  0.600170
			 0.735022  0.034625  0.677159
			 0.876545  0.017278  0.481009
			 0.770826  0.015103  0.636867
			 0.998512 -0.003996  0.054385
			 0.997001 -0.028052  0.072121
			 0.996142  0.009956  0.087185
			 0.967269 -0.006614  0.253668
			 0.878991  0.014598  0.476616
			 0.751662  0.033178  0.658713
			 0.884061  0.007455  0.467312
			 0.992153 -0.028053 -0.121845
			 0.999672 -0.025450  0.002680
			 0.998368 -0.024277  0.051687
			 0.998906 -0.004512 -0.046545
			 0.865665  0.016222 -0.500361
			 0.866260 -0.012941 -0.499425
			 0.915596 -0.014876 -0.401824
			 0.922354  0.086662 -0.376501
			 0.895648  0.168341 -0.411674
			 0.993068 -0.036920 -0.111591
			 0.964319  0.002330 -0.264733
			 0.994196  0.010925 -0.107031
			 0.610961  0.283591 -0.739123
			 0.792701  0.320947 -0.518284
			 0.391658  0.227228 -0.891612
			 0.262622  0.164192 -0.950826
			 0.898535  0.228053 -0.375003
			-0.065117  0.134480  0.988775
			-0.198590  0.106568  0.974272
			-0.079570  0.102831  0.991511
			 0.652710  0.069272  0.754435
			 0.082654  0.055374  0.995039
			 0.340068  0.055805  0.938744
			 0.434826  0.092647  0.895736
			 0.439320  0.076556  0.895063
			-0.087518  0.104466  0.990670
			-0.155901  0.081247  0.984426
			-0.025886  0.066832  0.997428
			 0.469540  0.083003  0.879001
			 0.450297  0.088380  0.888494
			 0.381233  0.091679  0.919922
			 0.629244  0.037943  0.776281
			-0.359333  0.248891  0.899407
			-0.576987  0.372337  0.726947
			-0.330378  0.318345  0.888542
			-0.916819  0.399159  0.010714
			-0.841771  0.377368  0.386024
			-0.763004  0.288694  0.578343
			-0.683437  0.310038  0.660901
			-0.618200  0.350211  0.703691
			-0.232025  0.124430  0.964718
			-0.244747  0.135874  0.960019
			-0.096507  0.125817  0.987348
			-0.055278  0.136662  0.989074
			-0.036721  0.115895  0.992583
			-0.108869  0.130886  0.985402
			-0.056675  0.097936  0.993578
			-0.062482  0.055908  0.996479
			-0.111978  0.071014  0.991170
			-0.058375  0.072416  0.995665
			-0.167377  0.073604  0.983142
			-0.124634  0.109780  0.986111
			-0.179215  0.210391  0.961050
			-0.285338  0.161396  0.944740
			-0.998031  0.057043 -0.026065
			-0.970099  0.236676 -0.053775
			-0.982525  0.103800 -0.154501
			-0.993143  0.111520  0.035065
			-0.956394  0.291299  0.021321
			-0.954424  0.244321  0.171410
			-0.864222  0.240142 -0.442100
			-0.928346 -0.069806 -0.365105
			-0.934753  0.066820 -0.348959
			-0.909610  0.122205 -0.397084
			-0.937015  0.167304 -0.306613
			-0.936818 -0.092438 -0.337383
			-0.901243  0.343449 -0.264205
			-0.935755  0.344084 -0.077262
			-0.834907  0.478616 -0.271768
			-0.711229  0.477358 -0.516025
			-0.584772  0.420296 -0.693824
			-0.639994  0.416980 -0.645396
			-0.896872  0.403119  0.181977
			-0.892055  0.449527 -0.046513
			-0.241457  0.238307 -0.940696
			-0.154030  0.130156 -0.979456
			-0.442085  0.332364 -0.833124
			 0.003620  0.194908 -0.980815
			-0.002870  0.176104 -0.984367
			-0.034218  0.200725 -0.979050
			-0.093299  0.128528 -0.987307