<?xml version="1.0"?>
<VTKFile type="PolyData" version="0.1" byte_order="LittleEndian" compressor="vtkZLibDataCompressor">
	<PolyData>
		<Piece NumberOfPoints="1122" NumberOfVerts="0" NumberOfLines="0" NumberOfStrips="0" NumberOfPolys="2240">
		<PointData Normals="Normals">
		<DataArray type="Float32" Name="Normals" NumberOfComponents="3" format="ascii">
			 0.075919  0.976254  0.202891
			-0.053648  0.994102 -0.094249
			-0.271963  0.950633  0.149442
			-0.089397  0.896950  0.433001
			 0.235624  0.937218 -0.257109
			 0.437818  0.897771 -0.048187
			 0.292471  0.860072  0.418015
			 0.027846  0.865108 -0.500813
			-0.257130  0.918341  0.300890
			-0.102710  0.926670  0.361572
			-0.331422  0.872943  0.357952
			-0.161235  0.957235  0.240218
			-0.217508  0.957394  0.189965
			-0.156937  0.987121 -0.031033
			-0.194740  0.953684  0.229265
			 0.033583  0.926774 -0.374116
			-0.045103  0.938407  0.342574
			 0.246119  0.892592  0.377763
			-0.042048  0.911558  0.409015
			 0.375954  0.762417 -0.526667
			 0.384987  0.857662  0.340883
			 0.503544  0.745808 -0.436135
			 0.510261  0.825777 -0.240263
			 0.305103  0.786667  0.536718
			 0.011422  0.818644 -0.574188
			 0.295798  0.697189 -0.653017
			 0.185862  0.734527 -0.652629
			 0.646044  0.737390  0.197187
			-0.162660  0.973667  0.159731
			 0.772411  0.574736  0.270297
			-0.050407  0.997188  0.055451
			-0.049471  0.939953  0.337700
			 0.082375  0.965734  0.246113
			 0.035949  0.990662 -0.131514
			-0.048654  0.989218 -0.138130
			 0.016339  0.962707  0.270053
			 0.165463  0.630857 -0.758051
			 0.185193  0.749353 -0.635747
			-0.006036  0.881224 -0.472660
			 0.236566  0.971183  0.028995
			 0.061224  0.973216  0.221592
			 0.433507  0.887688  0.155182
			 0.242552  0.884841  0.397774
			 0.415506  0.863233  0.286676
			 0.942812  0.308801  0.125492
			 0.459786  0.579759 -0.672664
			 0.528351  0.654017 -0.541394
			 0.280691  0.856369  0.433411
			 0.389404  0.921052  0.005250
			 0.426875  0.811700 -0.398650
			 0.221466  0.570667 -0.790754
			 0.301833  0.523353 -0.796868
			 0.102737  0.994398 -0.024834
			-0.045534  0.956867 -0.286934
			 0.217076  0.965432  0.144290
			 0.193996  0.850467 -0.488949
			 0.494456  0.815943 -0.299584
			 0.053400  0.787041 -0.614585
			-0.057253  0.807053 -0.587696
			-0.127493  0.857351 -0.498694
			-0.170874  0.959943 -0.222062
			-0.056342  0.997561  0.041211
			-0.214754  0.973857 -0.074052
			-0.323981  0.943223 -0.073261
			 0.060362  0.585130 -0.808690
			 0.102598  0.186142 -0.977151
			 0.086437  0.229283 -0.969514
			 0.139777  0.446899 -0.883597
			 0.513081  0.854395 -0.082197
			 0.430038  0.901965  0.039063
			 0.393713  0.897478  0.198807
			 0.312815  0.902345  0.296513
			 0.177452  0.980456  0.084951
			 0.052310  0.978548  0.199270
			 0.101334  0.937762  0.332166
			 0.184524  0.915727  0.356924
			 0.547093  0.245139 -0.800372
			 0.385260  0.302253 -0.871904
			 0.596578  0.381705 -0.705972
			 0.359288  0.245673 -0.900309
			 0.499399  0.634041 -0.590417
			 0.457889  0.881310 -0.116748
			 0.396032  0.844568 -0.360365
			 0.302076  0.933487  0.193268
			 0.456338  0.626383 -0.631981
			 0.221289  0.178749 -0.958687
			 0.242371  0.966943 -0.079236
			 0.093068  0.946430 -0.309207
			 0.021184  0.924363 -0.380925
			-0.023986  0.855455 -0.517321
			 0.222763  0.969463 -0.102555
			 0.538909  0.766216 -0.349987
			 0.137538  0.888491 -0.437798
			-0.053498  0.829781 -0.555518
			 0.602353  0.767734 -0.218532
			 0.036663  0.524561 -0.850583
			-0.075979  0.600475 -0.796026
			-0.391249  0.790809 -0.470686
			-0.309794  0.582727 -0.751303
			-0.549042  0.803293 -0.230809
			-0.800210  0.573596 -0.175076
			-0.764299  0.616674 -0.188574
			-0.816853  0.520025 -0.249650
			-0.816745  0.570354 -0.087318
			-0.606984  0.772258 -0.187582
			-0.198156  0.980070 -0.014051
			 0.198703  0.975498 -0.094450
			 0.132170 -0.065462 -0.989063
			 0.160521 -0.178598 -0.970740
			-0.061941 -0.049640 -0.996845
			-0.062670  0.229283 -0.971340
			 0.417774  0.897562 -0.140881
			 0.576246  0.768403 -0.278386
			 0.286631  0.931846 -0.222497
			 0.134056  0.981375 -0.137598
			 0.071515  0.997375  0.011322
			 0.077189  0.977113  0.198224
			 0.219053  0.932495  0.287174
			 0.212793  0.955220  0.205605
			 0.415967 -0.119262 -0.901526
			 0.548646 -0.013468 -0.835946
			 0.597305  0.329757 -0.731086
			 0.287688 -0.146577 -0.946441
			 0.541470  0.737337 -0.403912
			 0.452220  0.891796  0.014006
			 0.489021  0.333852 -0.805855
			 0.539235  0.304355 -0.785234
			 0.557950  0.482985 -0.674846
			 0.171644 -0.211405 -0.962209
			 0.038965  0.910774 -0.411062
			-0.016600  0.996594 -0.080777
			-0.196821  0.939523 -0.280283
			 0.272329  0.950072 -0.152316
			 0.569058  0.798903 -0.194750
			-0.267986  0.921548 -0.280951
			-0.211820  0.971923 -0.102455
			-0.262612  0.331616 -0.906127
			-0.513604  0.380910 -0.768842
			-0.603463  0.627227 -0.492360
			-0.785542  0.467655 -0.405243
			-0.847264  0.517213 -0.120970
			-0.888020  0.436642 -0.144098
			-0.889884  0.447539 -0.088405
			-0.889168  0.444476 -0.108724
			-0.893622  0.348385 -0.282962
			-0.705469  0.205643 -0.678251
			-0.696700  0.708096 -0.114932
			-0.659314  0.744991  0.101459
			-0.165924  0.981361  0.096954
			-0.544387  0.822005  0.167185
			 0.291173 -0.232080 -0.928093
			 0.064340 -0.202013 -0.977267
			 0.409559 -0.265390 -0.872829
			 0.232442 -0.361122 -0.903085
			-0.305604  0.161422 -0.938376
			-0.358325  0.007901 -0.933564
			-0.114379 -0.177890 -0.977380
			-0.016879 -0.318976 -0.947612
			 0.460553  0.837623 -0.293731
			 0.620289  0.773227 -0.131766
			 0.637859  0.769638  0.028167
			 0.442469  0.877147 -0.186642
			 0.323035  0.944922 -0.052628
			 0.308384  0.950865  0.027478
			 0.321852  0.946771  0.005988
			 0.187567  0.982067 -0.019059
			 0.408561  0.906358  0.107669
			 0.241930  0.956402  0.163598
			 0.536801  0.843493  0.019104
			 0.397084 -0.310654 -0.863608
			 0.284515 -0.301927 -0.909885
			 0.215550 -0.280365 -0.935379
			 0.435515 -0.202024 -0.877219
			 0.545775  0.042362 -0.836860
			 0.090720 -0.375159 -0.922511
			 0.613230  0.748648 -0.251945
			 0.718880  0.428841 -0.547090
			 0.642229  0.245379 -0.726176
			-0.127740  0.990529 -0.050339
			-0.457116  0.870229  0.183700
			-0.520934  0.775759  0.356127
			 0.296212  0.898774  0.323209
			-0.128279  0.947284  0.293592
			-0.450346  0.870613  0.198044
			-0.727107  0.379793 -0.571903
			-0.908979  0.287831 -0.301515
			-0.918988  0.266266 -0.290798
			-0.946605  0.320324 -0.036478
			-0.927973  0.371408  0.030375
			-0.905097  0.425203 -0.001094
			-0.849940  0.108978 -0.515487
			-0.666636  0.012550 -0.745278
			-0.873384  0.411158  0.261055
			-0.721327  0.585715  0.369628
			 0.179073 -0.308343 -0.934268
			 0.292912 -0.312673 -0.903570
			-0.009392 -0.321147 -0.946983
			 0.249197 -0.188970 -0.949838
			 0.301031 -0.310740 -0.901566
			-0.444159 -0.109953 -0.889176
			-0.225225 -0.173835 -0.958674
			 0.039700 -0.262716 -0.964056
			-0.043895 -0.243420 -0.968927
			 0.009756 -0.396163 -0.918128
			 0.019812 -0.371350 -0.928281
			-0.066167 -0.268544 -0.960992
			 0.093355 -0.320798 -0.942536
			-0.137306 -0.278212 -0.950655
			 0.547135  0.834757  0.061836
			 0.312244  0.869317  0.383135
			 0.384005  0.764585  0.517639
			 0.420349  0.790134  0.446088
			 0.378007  0.829944  0.410249
			 0.546513  0.806280  0.226356
			 0.329899  0.617713  0.713861
			 0.678448  0.586685  0.442164
			 0.537202  0.805989  0.248588
			 0.556326  0.799613  0.226098
			 0.740725  0.590886  0.319655
			 0.539424  0.833311  0.120894
			 0.651784  0.753332 -0.087576
			 0.930804  0.365298 -0.012730
			 0.974188  0.224570 -0.022921
			 0.405890 -0.314537 -0.858091
			 0.325758 -0.377174 -0.866961
			 0.205338 -0.350949 -0.913604
			 0.132416 -0.305941 -0.942797
			 0.415927 -0.246343 -0.875397
			 0.620217 -0.141150 -0.771626
			 0.731289  0.099875 -0.674715
			 0.483320 -0.270086 -0.832739
			 0.066911 -0.260646 -0.963113
			 0.791028  0.460624 -0.402617
			 0.583978  0.797442 -0.151844
			 0.822687  0.183448 -0.538083
			-0.602399  0.733221  0.315439
			-0.693090  0.551828  0.463801
			-0.680599  0.519178  0.516953
			-0.100419  0.833041  0.544021
			-0.083100  0.752957  0.652801
			-0.350134  0.833021  0.428349
			-0.549054  0.756055  0.356260
			-0.885918  0.015976 -0.463567
			-0.957625  0.081562 -0.276229
			-0.987134  0.114648 -0.111452
			-0.992510  0.113101  0.046175
			-0.943448  0.258223  0.207912
			-0.801041 -0.059085 -0.595686
			-0.665330 -0.117831 -0.737192
			-0.917475  0.178734  0.355379
			-0.906237  0.143782  0.397570
			-0.812825  0.337752  0.474594
			 0.246793 -0.340963 -0.907104
			 0.412450 -0.327055 -0.850247
			 0.387825 -0.312349 -0.867197
			 0.123766 -0.338090 -0.932940
			-0.482801 -0.208607 -0.850521
			-0.314702 -0.214085 -0.924733
			 0.094146 -0.301454 -0.948821
			 0.056357 -0.221243 -0.973589
			-0.363621 -0.152878 -0.918917
			-0.539438 -0.194206 -0.819323
			 0.266199  0.718516  0.642552
			 0.165925  0.723548  0.670035
			 0.321022  0.490042  0.810434
			 0.239075  0.555437  0.796450
			 0.564802  0.606015  0.560129
			 0.385739  0.505676  0.771685
			 0.349111  0.260340  0.900191
			 0.352575  0.224623  0.908425
			 0.744248  0.448502  0.494916
			 0.687833  0.173266  0.704886
			 0.688596  0.347588  0.636410
			 0.772321  0.508489  0.380735
			 0.729655  0.568987  0.379286
			 0.701594  0.642665  0.307812
			 0.642340  0.742938  0.188259
			 0.611862  0.784616  0.100015
			 0.793114  0.264200  0.548789
			 0.755894  0.314344  0.574292
			 0.813167  0.356997  0.459687
			 0.818485  0.573196 -0.039097
			 0.455621 -0.409597 -0.790341
			 0.427554 -0.401102 -0.810132
			 0.435730 -0.352502 -0.828180
			 0.394275 -0.346614 -0.851120
			 0.301097 -0.362537 -0.881991
			 0.770214 -0.231369 -0.594339
			 0.783129 -0.104922 -0.612945
			 0.593650 -0.328064 -0.734816
			 0.895560  0.139041 -0.422658
			 0.891534  0.293410 -0.345077
			 0.711781  0.664095 -0.228791
			-0.728074  0.521149  0.445322
			-0.751249  0.387070  0.534604
			-0.787105  0.230744  0.572034
			-0.358499  0.795687  0.488223
			-0.235031  0.552613  0.799612
			-0.409947  0.616421  0.672286
			-0.057543  0.588928  0.806135
			-0.583274  0.735346  0.345048
			-0.900091 -0.040070 -0.433855
			-0.951481 -0.102946 -0.289975
			-0.984722 -0.022833 -0.172629
			-0.954558  0.117108  0.274054
			-0.999469 -0.025583  0.020159
			-0.814334 -0.125546 -0.566655
			-0.695501 -0.178198 -0.696078
			-0.884709  0.019328  0.465743
			-0.897260  0.149973  0.415251
			-0.914004  0.002099  0.405699
			-0.814254  0.191772  0.547917
			 0.863494 -0.174850 -0.473082
			 0.314225 -0.284817 -0.905617
			 0.875131 -0.185437 -0.446944
			 0.157935 -0.230876 -0.960080
			 0.122140 -0.254947 -0.959210
			 0.156234 -0.212356 -0.964622
			 0.027018 -0.104529 -0.994155
			-0.787161 -0.125430 -0.603859
			-0.785651 -0.128291 -0.605223
			-0.599085 -0.136857 -0.788902
			-0.853245 -0.133173 -0.504220
			 0.238495  0.588828  0.772270
			 0.088824  0.480903  0.872263
			 0.240604  0.364494  0.899586
			 0.146537  0.380892  0.912934
			 0.575333  0.350856  0.738845
			 0.303316 -0.038983  0.952092
			 0.318499  0.127078  0.939366
			 0.499208  0.028126  0.866025
			 0.543721  0.186917  0.818186
			 0.508857 -0.015172  0.860717
			 0.699161  0.102742  0.707543
			 0.658980  0.143786  0.738289
			 0.562702 -0.006115  0.826637
			 0.933529  0.235308  0.270470
			 0.869025  0.420043  0.261455
			 0.912753  0.401451  0.075626
			 0.738742  0.673930 -0.008845
			 0.618247  0.780527 -0.092459
			 0.849337  0.139224  0.509160
			 0.959373  0.084174  0.269293
			 0.458739 -0.403225 -0.791813
			 0.499152 -0.415214 -0.760556
			 0.447489 -0.364293 -0.816728
			 0.369582 -0.262456 -0.891362
			 0.417956 -0.318513 -0.850801
			 0.623569 -0.323086 -0.711883
			 0.838651 -0.207083 -0.503767
			 0.932561 -0.047796 -0.357835
			 0.982388  0.158527 -0.098907
			 0.885015  0.419714 -0.201466
			-0.706147  0.193915  0.680995
			-0.682785  0.301713  0.665413
			-0.671913  0.559531  0.485240
			-0.805747  0.116578  0.580673
			-0.704394 -0.024641  0.709381
			-0.726668 -0.098066  0.679954
			-0.508496  0.711895  0.484395
			-0.253622  0.498990  0.828664
			-0.322018  0.359504  0.875820
			-0.215600  0.432876  0.875291
			-0.567912  0.504383  0.650442
			-0.533050  0.612206  0.584005
			 0.239601  0.477874  0.845120
			-0.091527  0.347851  0.933072
			-0.910204 -0.123693 -0.395258
			-0.978303 -0.140010 -0.152712
			-0.989074 -0.096469  0.111471
			-0.819812 -0.126257 -0.558540
			-0.824103 -0.035711  0.565314
			-0.804484 -0.068065  0.590061
			-0.849199  0.054374  0.525266
			-0.867644 -0.043400  0.495289
			-0.845875 -0.042422  0.531692
			 0.309639 -0.211474 -0.927040
			 0.166016 -0.183464 -0.968906
			 0.188755 -0.144921 -0.971272
			 0.300175 -0.110593 -0.947451
			-0.289087 -0.131555 -0.948220
			 0.236569 -0.145895 -0.960599
			-0.965675 -0.131497 -0.224008
			-0.880130 -0.138043 -0.454219
			-0.732997 -0.167303 -0.659337
			-0.924925 -0.125478 -0.358844
			-0.969910 -0.148277 -0.193104
			 0.017745  0.231917  0.972574
			 0.112417  0.152825  0.981838
			 0.392131 -0.111438  0.913134
			 0.095557 -0.113775  0.988900
			 0.081180 -0.171239  0.981879
			 0.185620 -0.155755  0.970199
			 0.632061 -0.023365  0.774567
			 0.600008 -0.108322  0.792626
			 0.372006 -0.131607  0.918853
			 0.785479 -0.028878  0.618214
			 0.997023 -0.012058  0.076154
			 0.993332 -0.085961  0.076822
			 0.919436 -0.058203  0.388909
			 0.984050 -0.120443  0.130915
			 0.443474 -0.390021 -0.806979
			 0.430140 -0.351312 -0.831601
			 0.483603 -0.332343 -0.809738
			 0.416630 -0.279390 -0.865078
			 0.341304 -0.178129 -0.922920
			 0.487598 -0.376380 -0.787773
			 0.377704 -0.239736 -0.894353
			 0.842942 -0.271339 -0.464569
			 0.668054 -0.300954 -0.680537
			 0.478942 -0.326591 -0.814833
			 0.967554 -0.167927 -0.188786
			 0.994816 -0.039653 -0.093644
			-0.434387  0.242059  0.867592
			-0.593717  0.144902  0.791520
			-0.558293  0.001922  0.829642
			-0.754966 -0.145770  0.639357
			-0.698950 -0.134971  0.702319
			-0.730076 -0.186641  0.657385
			-0.731820 -0.219991  0.645015
			-0.668868 -0.140886  0.729909
			-0.659113 -0.175125  0.731370
			-0.518406 -0.081591  0.851234
			-0.389078  0.272382  0.880015
			-0.300224  0.319783  0.898668
			 0.945517  0.145890  0.291055
			-0.283466  0.210389  0.935619
			-0.367660  0.101899  0.924361
			-0.183820  0.249959  0.950648
			 0.748323  0.202059  0.631811
			-0.121345  0.050880  0.991305
			-0.977102 -0.139852  0.160350
			-0.879713 -0.077327  0.469175
			-0.805047 -0.016091  0.592993
			-0.738752 -0.048905  0.672201
			-0.710188 -0.106026  0.695982
			-0.747340 -0.137252  0.650111
			-0.790926 -0.055222  0.609416
			 0.260804 -0.154855 -0.952891
			 0.537112 -0.240361 -0.808541
			 0.502485 -0.193091 -0.842748
			 0.144696 -0.142055 -0.979226
			 0.353946 -0.122063 -0.927266
			 0.189002 -0.205452 -0.960244
			 0.148578 -0.186650 -0.971126
			-0.324736 -0.162878 -0.931675
			-0.145395 -0.258204 -0.955087
			-0.123831 -0.178072 -0.976195
			-0.976806 -0.146874 -0.155814
			-0.976999 -0.193913 -0.088719
			-0.956733 -0.142711 -0.253566
			-0.982409 -0.184216 -0.030625
			-0.896152 -0.165926 -0.411559
			-0.506711 -0.202522 -0.837991
			-0.786458 -0.160398 -0.596453
			-0.944044 -0.131090 -0.302648
			-0.061826 -0.173737  0.982849
			-0.073150 -0.166967  0.983245
			 0.306910 -0.132872  0.942418
			 0.051449 -0.120041  0.991435
			 0.832407 -0.186447  0.521859
			 0.398150 -0.142551  0.906177
			 0.664787 -0.215727  0.715206
			 0.799401 -0.236945  0.552101
			 0.963575 -0.248116 -0.099807
			 0.958355 -0.213413  0.189763
			 0.442555 -0.302651 -0.844125
			 0.558995 -0.276775 -0.781614
			 0.408442 -0.175633 -0.895728
			 0.283687 -0.207305 -0.936240
			 0.582480 -0.232148 -0.778989
			 0.855638 -0.311291 -0.413500
			 0.616877 -0.305306 -0.725431
			-0.463012  0.177168  0.868465
			-0.643938 -0.113572  0.756601
			-0.673034 -0.168755  0.720102
			-0.456181 -0.207962  0.865246
			-0.247707 -0.071290  0.966209
			-0.276802 -0.159653  0.947572
			-0.940542 -0.122959  0.316642
			-0.831503  0.014691  0.555326
			-0.770942  0.029418  0.636225
			-0.665938 -0.015012  0.745856
			 0.462157 -0.162042 -0.871868
			 0.583654 -0.236953 -0.776660
			 0.514158 -0.177154 -0.839201
			 0.079924 -0.124586 -0.988985
			 0.278557 -0.147734 -0.948989
			 0.030762 -0.154639 -0.987492
			 0.242954 -0.207130 -0.947666
			 0.179836 -0.209733 -0.961078
			 0.106366 -0.163282 -0.980829
			-0.052486 -0.282276 -0.957896
			-0.095653 -0.186563 -0.977775
			-0.531516 -0.203843 -0.822155
			-0.965303 -0.231823 -0.120197
			-0.989166 -0.101257 -0.106294
			-0.988502 -0.110863 -0.102831
			 0.923090 -0.383396 -0.030212
			 0.995112 -0.098579  0.005886
			-0.835356 -0.132011 -0.533624
			-0.931749 -0.081157 -0.353917
			-0.991142 -0.091599 -0.096165
			-0.987194 -0.051329 -0.151042
			-0.067172 -0.153718  0.985829
			-0.169924 -0.212703  0.962228
			 0.376794 -0.098495  0.921045
			 0.305057 -0.093120  0.947770
			 0.369158 -0.081235  0.925810
			 0.057820 -0.069069  0.995935
			-0.194946 -0.119169  0.973548
			 0.929855 -0.295457  0.219260
			 0.651119 -0.199255  0.732353
			 0.844957 -0.283002  0.453826
			 0.958895 -0.283216 -0.017549
			 0.940147 -0.320624 -0.115429
			 0.715347 -0.344140 -0.608151
			 0.495318 -0.280343 -0.822233
			 0.347189 -0.254235 -0.902676
			 0.372092 -0.168019 -0.912862
			 0.557371 -0.198607 -0.806159
			 0.852746 -0.330290 -0.404640
			 0.927302 -0.308316 -0.212256
			 0.803511 -0.250299 -0.540111
			 0.945558 -0.244673 -0.214603
			 0.901315 -0.345268 -0.261576
			-0.510234 -0.040065  0.859102
			-0.401149 -0.072391  0.913148
			-0.508065 -0.206084  0.836301
			-0.432513 -0.189999  0.881381
			-0.347363 -0.228747  0.909403
			-0.994503 -0.099355  0.033043
			 0.066649 -0.815981 -0.574224
			-0.943985 -0.026205  0.328947
			-0.849996  0.023814  0.526251
			-0.763401  0.054943  0.643583
			-0.701528  0.049888  0.710893
			-0.534212  0.039216  0.844440
			-0.626621  0.031864  0.778672
			 0.542850 -0.161545 -0.824146
			 0.599774 -0.154695 -0.785073
			 0.241446 -0.122009 -0.962714
			 0.088046 -0.099555 -0.991129
			 0.464836 -0.149753 -0.872640
			 0.158323 -0.135976 -0.977980
			-0.240451 -0.144316 -0.959873
			 0.031608 -0.111175 -0.993298
			-0.370866 -0.270685 -0.888363
			-0.531435 -0.273325 -0.801792
			-0.762184 -0.155891 -0.628310
			-0.989805 -0.077172  0.119709
			-0.948996 -0.055421 -0.310380
			-0.995691 -0.051671  0.077010
			-0.999515 -0.030366  0.006955
			-0.100624 -0.184098  0.977744
			-0.220879 -0.191503  0.956315
			 0.467789 -0.145998  0.871699
			 0.259627 -0.064243  0.963570
			-0.131652 -0.037010  0.990605
			-0.337261 -0.012425  0.941329
			 0.917739 -0.322190  0.232267
			 0.945563 -0.307851 -0.105537
			 0.947849 -0.305198 -0.091852
			 0.814286 -0.283829  0.506339
			 0.694016 -0.263204  0.670123
			 0.842204 -0.269551  0.466942
			 0.942347 -0.315065 -0.112768
			 0.841706 -0.324200 -0.431770
			 0.512459 -0.222143 -0.829481
			 0.339187 -0.176081 -0.924093
			 0.461921 -0.154009 -0.873447
			 0.944936 -0.321748 -0.059774
			 0.891109 -0.281534  0.355898
			 0.910890 -0.332343  0.244597
			 0.951352 -0.302528 -0.058355
			-0.412172  0.011688  0.911031
			-0.935417 -0.037814  0.351519
			-0.774031  0.046176  0.631462
			-0.820191  0.012390  0.571956
			-0.692982  0.049808  0.719233
			-0.679759  0.036001  0.732551
			-0.507856  0.048329  0.860085
			-0.382371  0.046768  0.922825
			-0.342986  0.017779  0.939172
			 0.627716 -0.158194 -0.762199
			 0.347799 -0.109851 -0.931112
			 0.310444 -0.089772 -0.946343
			 0.036272 -0.048040 -0.998187
			 0.276789 -0.074265 -0.958057
			 0.610102 -0.154926 -0.777028
			 0.542971 -0.138145 -0.828311
			-0.052879 -0.037436 -0.997899
			-0.464043 -0.019858 -0.885590
			-0.603128 -0.043311 -0.796467
			-0.431244 -0.029862 -0.901741
			-0.673285 -0.114825 -0.730412
			-0.906192 -0.086417 -0.413943
			-0.991492 -0.040939 -0.123562
			-0.939829 -0.022466  0.340907
			-0.976550 -0.018363  0.214504
			-0.951692 -0.009914  0.306894
			 0.588673 -0.223917  0.776740
			 0.575064 -0.147837  0.804640
			 0.430700 -0.070839  0.899711
			 0.128330  0.000003  0.991731
			 0.471549 -0.053543  0.880213
			-0.208542  0.025317  0.977686
			 0.803826 -0.283722  0.522843
			 0.728555 -0.293595  0.618878
			 0.814860 -0.292646 -0.500361
			 0.948850 -0.303001  0.088731
			 0.667018 -0.291311 -0.685729
			 0.463930 -0.290855 -0.836763
			 0.444228 -0.250938 -0.860053
			 0.377816 -0.210780 -0.901569
			 0.368667 -0.263478 -0.891439
			 0.584462 -0.152975 -0.796871
			 0.902244 -0.286680  0.322135
			 0.762744 -0.224372  0.606531
			 0.709386 -0.262939  0.653938
			-0.823601  0.022309  0.566731
			-0.561406  0.019875  0.827302
			-0.747134  0.019090  0.664399
			-0.199909 -0.007355  0.979787
			-0.428305 -0.014219  0.903522
			-0.094342  0.008799  0.995501
			 0.515401 -0.125977 -0.847639
			 0.534874 -0.087385 -0.840401
			 0.461294 -0.105661 -0.880933
			 0.131219 -0.016432 -0.991217
			-0.090799  0.017143 -0.995722
			 0.065359 -0.003647 -0.997855
			 0.378203 -0.074398 -0.922728
			 0.497923 -0.045222 -0.866041
			 0.332224 -0.036431 -0.942497
			 0.242684  0.025171 -0.969779
			-0.619267 -0.036408 -0.784336
			-0.896111  0.024351 -0.443162
			-0.880841 -0.098872 -0.462972
			-0.770250  0.071890 -0.633678
			-0.525174 -0.011740 -0.850914
			-0.481917 -0.052718 -0.874629
			-0.996888 -0.012708 -0.077799
			-0.993131 -0.041153  0.109529
			-0.866651  0.007014  0.498865
			-0.886980 -0.000289  0.461809
			-0.878615  0.006677  0.477484
			-0.953014 -0.004276  0.302896
			 0.582201 -0.143211  0.800333
			 0.704778 -0.194595  0.682217
			 0.401256 -0.037398  0.915202
			 0.582693 -0.114991  0.804516
			 0.194604 -0.011111  0.980819
			 0.023212 -0.034047  0.999151
			 0.924631 -0.270392 -0.268227
			 0.928436 -0.159719  0.335404
			 0.837961 -0.236555  0.491796
			 0.838596 -0.154585  0.522361
			 0.741912 -0.294492 -0.602363
			 0.547276 -0.181772 -0.816975
			 0.376771 -0.251911 -0.891395
			 0.536060 -0.188995 -0.822751
			-0.582463  0.007463  0.812823
			-0.728361  0.004756  0.685177
			-0.619310  0.018043  0.784939
			-0.672771  0.021568  0.739537
			-0.739430  0.012333  0.673121
			-0.278941 -0.010152  0.960255
			 0.121880 -0.022862  0.992282
			 0.075507 -0.014170  0.997045
			-0.549938  0.012844  0.835107
			 0.550938 -0.098248 -0.828743
			 0.893938 -0.035516 -0.446781
			 0.913813 -0.050457 -0.402988
			 0.639541 -0.075761 -0.765015
			 0.261699  0.032902 -0.964588
			-0.107219  0.100137 -0.989180
			 0.057216  0.055760 -0.996803
			-0.572014  0.142880 -0.807704
			 0.563999  0.033483 -0.825097
			 0.085599  0.027915 -0.995938
			 0.403952 -0.049118 -0.913461
			 0.827548 -0.028221 -0.560685
			 0.368300  0.023244 -0.929416
			 0.417041 -0.030896 -0.908362
			 0.502728  0.022375 -0.864155
			 0.072330  0.086733 -0.993602
			-0.024514  0.057759 -0.998030
			 0.828356  0.036434 -0.559015
			 0.949171  0.013341 -0.314478
			-0.995395  0.095360  0.009735
			-0.833457  0.124401 -0.538400
			-0.984578  0.018347  0.173983
			-0.849101  0.015419  0.528006
			-0.931278  0.008007  0.364221
			-0.791114  0.036226  0.610595
			 0.717815 -0.147439  0.680443
			 0.579712 -0.071401  0.811687
			 0.366815 -0.041683  0.929360
			 0.234586 -0.046819  0.970967
			-0.006097 -0.042562  0.999075
			 0.959988 -0.242307 -0.140390
			 0.977220 -0.203209 -0.061207
			 0.820656 -0.125679  0.557431
			 0.983614 -0.092545  0.154723
			 0.745283 -0.110937  0.657454
			 0.682770 -0.167464 -0.711183
			 0.890746 -0.223972 -0.395484
			 0.911054 -0.285699 -0.297248
			 0.655527 -0.074435 -0.751495
			 0.607905 -0.066024 -0.791260
			-0.813105 -0.012733  0.581978
			-0.743099 -0.010033  0.669107
			-0.649338  0.018036  0.760286
			-0.544103  0.006321  0.838995
			 0.351153  0.020513  0.936093
			 0.757944  0.022883  0.651918
			-0.360386  0.019700  0.932595
			-0.096126 -0.019778  0.995173
			 0.095911 -0.015640  0.995267
			 0.498297 -0.058110 -0.865057
			 0.009718  0.183331 -0.983003
			-0.445122  0.224311 -0.866920
			 0.072422  0.079047 -0.994237
			-0.814842  0.199978 -0.544097
			 0.248992  0.062844 -0.966464
			 0.587319 -0.014221 -0.809230
			 0.433415 -0.011080 -0.901126
			 0.516330  0.032370 -0.855778
			 0.480614  0.096321 -0.871626
			 0.251821  0.112905 -0.961165
			 0.349896  0.031070 -0.936273
			 0.460425 -0.020060 -0.887472
			 0.439553 -0.024243 -0.897890
			 0.638020  0.067029 -0.767096
			 0.645671  0.186295 -0.740542
			 0.392433  0.095872 -0.914770
			 0.512181  0.156562 -0.844488
			 0.582714  0.042078 -0.811587
			 0.594097  0.017593 -0.804201
			 0.091294  0.170325 -0.981150
			 0.052367  0.208117 -0.976701
			-0.982131  0.135091 -0.131029
			-0.987499  0.089458  0.129782
			-0.950210  0.137306  0.279727
			-0.899428  0.055898  0.433480
			-0.892001 -0.022637  0.451466
			-0.804653  0.022393  0.593323
			 0.760232  0.040683  0.648377
			 0.634962 -0.098686  0.766214
			 0.713426 -0.095039  0.694256
			 0.478209 -0.053914  0.876590
			 0.238698 -0.056293  0.969461
			 0.892834 -0.131070 -0.430891
			 0.870081 -0.077289  0.486813
			 0.713163 -0.072099  0.697281
			 0.952634  0.002237  0.304111
			 0.984298  0.026548 -0.174507
			 0.852813 -0.048047 -0.520001
			 0.811376 -0.022910  0.584075
			 0.623656 -0.020293 -0.781436
			-0.798877 -0.007711  0.601445
			-0.701557 -0.026488  0.712121
			-0.571866 -0.027822  0.819875
			-0.555095  0.004097  0.831777
			-0.323821  0.002978  0.946114
			-0.384033 -0.003141  0.923314
			 0.115713 -0.023656  0.993001
			-0.116109 -0.000502  0.993236
			-0.384588  0.318399 -0.866438
			 0.103257  0.235653 -0.966336
			-0.838836  0.235750 -0.490689
			 0.624452  0.022916 -0.780727
			 0.751694  0.022409 -0.659131
			 0.538735  0.181000 -0.822802
			 0.452903  0.097580 -0.886204
			 0.382689  0.296558 -0.874987
			 0.471677  0.305716 -0.827078
			 0.223990  0.253486 -0.941049
			 0.322890  0.200044 -0.925054
			 0.827950  0.163907 -0.536315
			 0.820455  0.074637 -0.566818
			 0.666396  0.054886 -0.743576
			 0.709582  0.090829 -0.698744
			 0.712720  0.261777 -0.650771
			 0.356257  0.193166 -0.914204
			 0.492069  0.206704 -0.845660
			 0.435445  0.222307 -0.872335
			-0.978162  0.132720 -0.159952
			-0.963291  0.260081  0.066546
			-0.960370  0.091440  0.263302
			-0.992674  0.053682  0.108247
			-0.930262  0.046820  0.363897
			 0.601664 -0.097837  0.792734
			 0.447415 -0.109304  0.887622
			 0.249084 -0.101760  0.963121
			 0.576274 -0.052755  0.815552
			 0.581512 -0.070417  0.810484
			 0.976569  0.046898  0.210030
			 0.886707 -0.031800  0.461237
			 0.899851  0.105052 -0.423358
			 0.721226 -0.056539  0.690388
			 0.606508 -0.049063  0.793562
			-0.678977 -0.001889  0.734157
			-0.863460  0.036179  0.503118
			-0.616202 -0.064507  0.784942
			-0.531335 -0.063750  0.844759
			-0.447889 -0.017574  0.893917
			-0.455604 -0.046684  0.888957
			-0.471181 -0.059750  0.880010
			-0.396591 -0.050356  0.916613
			-0.287046 -0.024300  0.957608
			 0.093841 -0.020085  0.995385
			 0.051925 -0.051899  0.997301
			-0.015027  0.323630 -0.946064
			-0.545716  0.316102 -0.776062
			-0.887218  0.257931 -0.382513
			 0.441084  0.276839 -0.853701
			 0.553122  0.266392 -0.789361
			 0.445858  0.394269 -0.803593
			 0.250900  0.388506 -0.886630
			 0.321904  0.316424 -0.892330
			 0.992050  0.107002 -0.066231
			 0.979314  0.184720 -0.082596
			 0.915987  0.227221 -0.330662
			 0.890266  0.248437 -0.381715
			 0.619922  0.264319 -0.738804
			 0.468886  0.348740 -0.811497
			-0.831812  0.308159 -0.461656
			-0.947175  0.309566 -0.083833
			-0.913134  0.367154  0.177159
			-0.846091  0.294480  0.444310
			-0.905750  0.164518  0.390577
			-0.874927  0.085374  0.476670
			 0.411795 -0.063651  0.909051
			 0.482630 -0.072245  0.872840
			 0.912307  0.082240  0.401165
			 0.807006 -0.012024  0.590420
			 0.523723 -0.081623  0.847969
			 0.545261 -0.059779  0.836132
			 0.661961 -0.029271  0.748966
			-0.487951  0.023181  0.872563
			-0.465077 -0.092847  0.880388
			-0.747811  0.120216  0.652937
			-0.619754  0.090896  0.779514
			-0.471273 -0.102032  0.876066
			-0.427147 -0.096876  0.898977
			-0.379808 -0.076098  0.921930
			-0.208434 -0.042037  0.977133
			-0.302753 -0.055584  0.951447
			-0.291352 -0.040128  0.955774
			 0.072017 -0.059980  0.995598
			-0.201481  0.230307 -0.952032
			-0.272718  0.347374 -0.897193
			-0.480528  0.332510 -0.811498
			 0.357473  0.260465 -0.896868
			 0.496175  0.246985 -0.832351
			 0.325304  0.189817 -0.926362
			 0.590976  0.198637 -0.781851
			 0.528113  0.136438 -0.838141
			 0.638300 -0.035627 -0.768963
			 0.143022  0.244149 -0.959133
			 0.421955  0.309659 -0.852095
			 0.261811  0.170155 -0.950001
			 0.355141  0.087013 -0.930755
			 0.871874  0.083558  0.482549
			 0.873732  0.045346  0.484290
			 0.957218  0.074721  0.279554
			 0.991332  0.103998  0.080288
			 0.934962  0.083054  0.344888
			 0.704684  0.371145 -0.604708