<?xml version="1.0"?>
<VTKFile type="PolyData" version="0.1" byte_order="LittleEndian" compressor="vtkZLibDataCompressor">
	<PolyData>
		<Piece NumberOfPoints="2662" NumberOfVerts="0" NumberOfLines="0" NumberOfStrips="0" NumberOfPolys="5320">
		<PointData Normals="Normals">
		<DataArray type="Float32" Name="Normals" NumberOfComponents="3" format="ascii">
			 0.747254 -0.379553  0.545483
			 0.740471 -0.152467  0.654566
			 0.606612 -0.408583  0.681969
			 0.543313 -0.645293  0.537036
			 0.810075 -0.209327  0.547686
			 0.790967 -0.485000  0.373024
			 0.675953 -0.597473  0.431409
			 0.565385 -0.307911  0.765199
			 0.640141 -0.224646  0.734680
			 0.783357  0.002396  0.621568
			 0.809871 -0.023501  0.586137
			 0.294350 -0.698704  0.652051
			 0.456295 -0.485800  0.745515
			 0.464484 -0.840042  0.280329
			 0.326643 -0.801587  0.500762
			 0.831350 -0.325072  0.450761
			 0.793726 -0.062595  0.605046
			 0.676673 -0.663401  0.319395
			 0.641970 -0.757985  0.115471
			 0.805836 -0.564663  0.178278
			 0.440187 -0.417435  0.794974
			 0.657794 -0.132558  0.741442
			 0.459050 -0.378069  0.803951
			 0.568160 -0.213607  0.794712
			 0.417735 -0.354045  0.836749
			 0.618880 -0.014167  0.785358
			 0.786645 -0.003909  0.617393
			 0.676429  0.056105  0.734367
			 0.809484  0.032781  0.586227
			 0.131498 -0.904265  0.406217
			 0.008113 -0.825857  0.563821
			 0.270151 -0.649422  0.710823
			 0.066167 -0.996367  0.053616
			 0.331806 -0.943287 -0.010745
			 0.761695 -0.549513  0.343300
			 0.787999 -0.225258  0.572989
			 0.732270 -0.027154  0.680473
			 0.376319 -0.914916 -0.145986
			 0.626678 -0.779278  0.000591
			 0.204923 -0.577182  0.790486
			 0.388829 -0.184009  0.902747
			 0.266566 -0.384865  0.883641
			 0.110923 -0.528954  0.841370
			 0.458480 -0.079682  0.885125
			 0.644846 -0.018961  0.764077
			 0.775817  0.001005  0.630957
			 0.644325 -0.104120  0.757631
			 0.708429 -0.183220  0.681585
			 0.769383 -0.166378  0.616740
			-0.098867 -0.957965  0.269310
			-0.096624 -0.706339  0.701249
			-0.254615 -0.882477  0.395482
			-0.148735 -0.985389  0.082983
			-0.202185 -0.976152 -0.079051
			-0.052146 -0.986634 -0.154386
			 0.071603 -0.959797 -0.271410
			 0.671597 -0.725010  0.152702
			 0.718886 -0.628589  0.296779
			 0.737687 -0.329777  0.589123
			 0.725425 -0.494644  0.478629
			 0.697561 -0.089777  0.710879
			 0.152743 -0.940717 -0.302856
			 0.324086 -0.903740 -0.279684
			 0.558768 -0.808445 -0.184919
			 0.122683 -0.403563  0.906689
			 0.241746 -0.190923  0.951371
			 0.425624 -0.158685  0.890878
			 0.723254 -0.106191  0.682368
			 0.687737 -0.006950  0.725927
			 0.392911 -0.144350  0.908176
			 0.533990 -0.142022  0.833477
			 0.723320 -0.229507  0.651256
			 0.724156 -0.221172  0.653208
			 0.619523 -0.170425  0.766255
			 0.718491 -0.217373  0.660697
			-0.266989 -0.953910  0.137013
			-0.282480 -0.808332  0.516531
			-0.281546 -0.711900  0.643375
			-0.048400 -0.590844  0.805333
			-0.380068 -0.840413  0.386333
			-0.385784 -0.900015  0.202838
			-0.139170 -0.920051 -0.366248
			-0.230618 -0.960439 -0.156118
			-0.291096 -0.955890  0.039221
			-0.118560 -0.919949 -0.373682
			-0.112203 -0.904833 -0.410715
			 0.015757 -0.835715 -0.548938
			 0.727117 -0.684681 -0.050134
			 0.792821 -0.561574  0.236790
			 0.747758 -0.475423  0.463499
			 0.720943 -0.217073  0.658119
			 0.663989 -0.056825  0.745580
			 0.327071 -0.805158 -0.494717
			 0.541827 -0.733872 -0.409701
			 0.085743 -0.418434  0.904191
			 0.295078 -0.245104  0.923500
			 0.255827 -0.182551  0.949330
			 0.591862 -0.080336  0.802026
			 0.699951 -0.210139  0.682576
			 0.678936 -0.059340  0.731795
			 0.702501 -0.024501  0.711260
			 0.180789 -0.070748  0.980974
			 0.315441 -0.033771  0.948344
			 0.698921 -0.151504  0.698967
			 0.542196 -0.047075  0.838932
			 0.751001 -0.249328  0.611420
			 0.759706 -0.121099  0.638891
			 0.729115 -0.065103  0.681287
			-0.399489 -0.793353  0.459346
			-0.205970 -0.639149  0.740989
			-0.425729 -0.708324  0.563056
			-0.422341 -0.793242  0.438629
			-0.360793 -0.895226  0.261532
			-0.142169 -0.960576 -0.238919
			-0.151190 -0.833282 -0.531774
			-0.126041 -0.772696 -0.622137
			-0.152989 -0.898408 -0.411652
			-0.022182 -0.993865  0.108357
			-0.145679 -0.866507 -0.477434
			-0.101179 -0.756714 -0.645868
			-0.158431 -0.915547 -0.369693
			 0.130194 -0.715724 -0.686140
			-0.092795 -0.635212 -0.766743
			-0.001647 -0.547761 -0.836633
			 0.759002 -0.625835 -0.179575
			 0.877978 -0.468313  0.099186
			 0.859517 -0.350567  0.371932
			 0.785912 -0.292451  0.544807
			 0.739349 -0.112478  0.663861
			 0.310904 -0.671778 -0.672349
			 0.495397 -0.580225 -0.646468
			 0.688805 -0.622562 -0.371436
			 0.608074 -0.594063 -0.526626
			 0.099474 -0.385835  0.917189
			-0.102767 -0.518160  0.849087
			 0.193437 -0.242767  0.950603
			 0.101746 -0.115243  0.988113
			 0.624304 -0.075241  0.777550
			 0.726975 -0.099370  0.679436
			 0.757125 -0.197770  0.622615
			 0.724934 -0.279008  0.629783
			 0.760164 -0.265169  0.593158
			 0.619000 -0.052830  0.783612
			-0.076941 -0.023531  0.996758
			-0.091200  0.000763  0.995832
			 0.564740  0.021091  0.824999
			 0.149979  0.043716  0.987722
			 0.337178  0.066837  0.939065
			 0.668579 -0.029173  0.743068
			 0.573176  0.072048  0.816259
			 0.808293 -0.133002  0.573562
			 0.841786  0.056660  0.536829
			 0.816429  0.090269  0.570346
			 0.729911  0.038270  0.682470
			-0.275825 -0.542669  0.793367
			-0.477289 -0.732452  0.485500
			-0.477702 -0.660200  0.579600
			-0.298312 -0.862671  0.408422
			-0.403985 -0.678288  0.613777
			-0.415600 -0.654584  0.631503
			-0.139549 -0.911565  0.386750
			 0.205334 -0.933437 -0.294166
			-0.102629 -0.933485 -0.343617
			-0.066261 -0.807384  0.586295
			 0.097688 -0.952273  0.289192
			 0.239271 -0.968995  0.061626
			 0.288002 -0.938462 -0.190641
			-0.047399 -0.910025 -0.411836
			-0.105985 -0.783234 -0.612627
			 0.050183 -0.699716 -0.712656
			 0.024017 -0.603777 -0.796791
			 0.122984 -0.639212 -0.759133
			 0.165682 -0.416226 -0.894039
			-0.006560 -0.354534 -0.935020
			-0.017170 -0.365454 -0.930671
			 0.214974 -0.580798 -0.785150
			 0.221119 -0.447169 -0.866687
			 0.002976 -0.364789 -0.931085
			 0.099897 -0.395669 -0.912944
			 0.759286 -0.486866 -0.431794
			 0.889678 -0.439004 -0.125493
			 0.948677 -0.284150  0.138818
			 0.879673 -0.223188  0.419955
			 0.731284 -0.046594  0.680480
			 0.369653 -0.530181 -0.763063
			 0.580561 -0.460847 -0.671244
			-0.039497 -0.316547  0.947754
			 0.070577 -0.162703  0.984148
			-0.045392 -0.066921  0.996725
			 0.662839 -0.036319  0.747881
			 0.867135 -0.122496  0.482774
			 0.810882 -0.048619  0.583186
			 0.914138 -0.092832  0.394632
			 0.893386 -0.035531  0.447883
			-0.328402  0.003036  0.944533
			-0.445771 -0.028532  0.894692
			-0.406125  0.023768  0.913508
			-0.412155 -0.037417  0.910345
			-0.213184 -0.056025  0.975405
			 0.098227 -0.000589  0.995164
			-0.112187 -0.072412  0.991045
			 0.624260  0.081374  0.776967
			 0.664388  0.037311  0.746456
			 0.423600  0.016342  0.905702
			 0.228332 -0.045352  0.972526
			 0.399109  0.122522  0.908681
			 0.510358  0.102576  0.853822
			 0.702346  0.085711  0.706657
			 0.915998  0.130847  0.379244
			 0.912253  0.270759  0.307382
			 0.789828  0.071501  0.609147
			 0.845980  0.074874  0.527932
			 0.885653  0.221923  0.407884
			 0.918481  0.173397  0.355424
			-0.559924 -0.476474  0.677834
			-0.311049 -0.432305  0.846381
			-0.580618 -0.570904  0.580475
			-0.464285 -0.579096  0.670140
			-0.306644 -0.766594  0.564183
			 0.246365 -0.899444 -0.360976
			 0.781563 -0.588040 -0.208248
			 0.951723 -0.284553 -0.115118
			-0.005867 -0.859866  0.510486
			-0.102416 -0.682100  0.724051
			-0.115452 -0.755581  0.644801
			-0.174917 -0.631838  0.755106
			-0.077887 -0.626864  0.775226
			 0.088643 -0.988434  0.123051
			 0.252891 -0.966284  0.048395
			 0.119537 -0.948855  0.292208
			-0.045427 -0.880740  0.471417
			 0.391175 -0.905418 -0.164923
			 0.357296 -0.876483 -0.322671
			 0.249529 -0.929935 -0.270103
			 0.116597 -0.820326 -0.559884
			 0.833029 -0.532983 -0.148297
			 0.333263 -0.902617 -0.272433
			 0.315803 -0.672950 -0.668885
			 0.183862 -0.542610 -0.819615
			 0.477563 -0.488764 -0.730098
			 0.493499 -0.284984 -0.821732
			 0.007258 -0.251578 -0.967810
			 0.354185 -0.259843 -0.898351
			 0.157829 -0.216764 -0.963381
			-0.033543 -0.280075 -0.959392
			 0.022543 -0.239712 -0.970582
			 0.365007 -0.450048 -0.815001
			 0.324134 -0.372249 -0.869694
			 0.267953 -0.330399 -0.905007
			 0.193076 -0.270646 -0.943118
			 0.838271 -0.290872 -0.461189
			 0.896030 -0.363766 -0.254568
			 0.970787 -0.238854  0.022846
			 0.883671 -0.108492  0.455363
			 0.429997 -0.380206 -0.818869
			 0.665207 -0.311301 -0.678669
			-0.168401 -0.108018  0.979782
			-0.238148 -0.276496  0.931040
			 0.966251  0.054797  0.251705
			 0.924934 -0.110289  0.363777
			 0.862907 -0.031277  0.504393
			 0.925359 -0.042283  0.376726
			 0.984985  0.053772  0.164051
			 0.967056  0.177146  0.182816
			-0.419340 -0.057952  0.905977
			-0.525666 -0.074467  0.847425
			-0.475107 -0.051996  0.878390
			-0.478440 -0.021746  0.877851
			-0.477005 -0.070536  0.876066
			-0.417148 -0.066412  0.906409
			-0.511118 -0.032984  0.858878
			-0.352240 -0.054407  0.934327
			-0.440134 -0.027302  0.897517
			-0.262035 -0.075066  0.962135
			 0.056803 -0.102129  0.993148
			-0.007573 -0.113596  0.993498
			-0.182477 -0.101301  0.977978
			-0.304925 -0.105886  0.946472
			 0.620543  0.083231  0.779743
			 0.415989 -0.055570  0.907670
			 0.532521 -0.018223  0.846221
			 0.121838 -0.099068  0.987594
			 0.671451  0.004497  0.741036
			 0.755078  0.068481  0.652048
			 0.925690  0.346095  0.152700
			 0.910500  0.363382  0.197343
			 0.957387  0.264449  0.116085
			 0.934043  0.348450 -0.078403
			 0.865909  0.489572 -0.102572
			 0.936087  0.111934  0.333483
			 0.940303  0.046524  0.337143
			 0.830999 -0.016913  0.556017
			 0.834043 -0.024586  0.551152
			 0.986532  0.128006  0.101831
			-0.636152 -0.444930  0.630355
			-0.592490 -0.447638  0.669758
			-0.594655 -0.313901  0.740170
			-0.464711 -0.373903  0.802646
			-0.139612 -0.511365  0.847947
			-0.359781 -0.500974  0.787136
			-0.326130 -0.555187  0.765119
			-0.288278 -0.814752  0.503066
			-0.350118 -0.662389  0.662312
			-0.178034 -0.488302  0.854321
			 0.291866 -0.946988 -0.134271
			 0.038541 -0.994474  0.097651
			 0.811049 -0.550718  0.197255
			-0.148006 -0.960888  0.234071
			-0.130351 -0.903678  0.407891
			 0.810381 -0.550110  0.201645
			 0.318625 -0.724958 -0.610667
			 0.453294 -0.808007 -0.376362
			 0.455796 -0.690379 -0.561806
			 0.539046 -0.633413 -0.555173
			 0.607000 -0.254208 -0.752947
			 0.462282 -0.388288 -0.797200
			 0.480057 -0.541391 -0.690248
			 0.424851 -0.450726 -0.785079
			 0.450778 -0.663008 -0.597679
			 0.521321 -0.673601 -0.523914
			 0.460101 -0.094230 -0.882852
			 0.036382 -0.118771 -0.992255
			 0.233652  0.032519 -0.971776
			 0.249567 -0.081519 -0.964920
			 0.422153 -0.288193 -0.859495
			 0.313308 -0.177139 -0.932984
			 0.370300 -0.178374 -0.911625
			 0.757469 -0.116810 -0.642336
			 0.949692 -0.220956 -0.221956
			 0.895106 -0.055867 -0.442339
			 0.969845 -0.082305 -0.229406
			 0.956713 -0.078495  0.280247
			 0.996665 -0.077677 -0.024990
			 0.608264 -0.124156 -0.783964
			-0.425313 -0.212127  0.879836
			-0.446899 -0.122391  0.886172
			 0.978744  0.204960  0.007178
			 0.966311  0.250085 -0.060831
			 0.982811 -0.004870  0.184551
			 0.975924  0.184209 -0.116787
			 0.891770  0.451854 -0.023957
			-0.533783 -0.138779  0.834156
			-0.482794 -0.267022  0.834032
			-0.341847 -0.042977  0.938773
			-0.438529 -0.062406  0.896548
			-0.490533 -0.089604  0.866803
			-0.478440 -0.078456  0.874608
			-0.405107 -0.095274  0.909292
			-0.381373 -0.098435  0.919166
			-0.382009 -0.095062  0.919257
			-0.299946 -0.101847  0.948504
			-0.020918 -0.090974  0.995634
			-0.405235 -0.086641  0.910098
			 0.573527 -0.085449  0.814718
			 0.306234 -0.061800  0.949948
			 0.456696 -0.066517  0.887133
			 0.775059 -0.090366  0.625393
			 0.869206  0.487117 -0.084834
			 0.851920  0.501019 -0.152358
			 0.974162  0.200655 -0.103668
			 0.850075  0.392271 -0.351419
			 0.932399  0.218179 -0.288150
			 0.670768  0.555809 -0.491066
			 0.742551  0.603918 -0.289656
			 0.996779  0.057241  0.056176
			 0.973306  0.035824  0.226699
			 0.897994 -0.043436  0.437858
			 0.996233  0.066499  0.055660
			 0.865544 -0.066633  0.496381
			 0.828083 -0.082010  0.554575
			 0.871276 -0.091659  0.482159
			 0.981978  0.074001 -0.173903
			-0.498196 -0.454471  0.738415
			-0.009733 -0.410164  0.911960
			-0.038786 -0.439844  0.897236
			-0.204497 -0.455630  0.866362
			-0.431669 -0.360013  0.827075
			-0.631801 -0.316383  0.707623
			-0.606720 -0.425382  0.671521
			-0.534235 -0.513281  0.671666
			-0.547875 -0.697836  0.461366
			-0.544789 -0.769443  0.333410
			-0.366361 -0.887327  0.280055
			-0.033894 -0.919082  0.392606
			-0.572439 -0.557460  0.601292
			-0.323964 -0.323805  0.888931
			-0.144297 -0.335014  0.931098
			-0.031134 -0.999503 -0.004948
			 0.198868 -0.948081 -0.248181
			 0.411977 -0.861899 -0.295643
			-0.042957 -0.944229  0.326475
			 0.805392 -0.545671  0.231487
			-0.366811 -0.930284 -0.004642
			 0.490293 -0.768288 -0.411518
			 0.493277 -0.302055 -0.815746
			 0.495712 -0.128997 -0.858853
			 0.617741 -0.083735 -0.781911
			 0.240640 -0.326764 -0.913957
			 0.306140 -0.298753 -0.903894
			 0.331150 -0.539122 -0.774394
			 0.319962 -0.651974 -0.687425
			 0.254843 -0.377198 -0.890380
			 0.366575 -0.830020 -0.420345
			 0.350679 -0.781541 -0.515963
			 0.202430 -0.793657 -0.573700
			 0.616586  0.041572 -0.786189
			 0.467908  0.024200 -0.883446
			 0.054879  0.149526 -0.987234
			 0.071112  0.089517 -0.993443
			 0.142649  0.276216 -0.950450
			 0.496672  0.158731 -0.853301
			 0.387835  0.152171 -0.909081
			 0.491545  0.044820 -0.869698
			 0.315059  0.123017 -0.941066
			 0.476109 -0.084256 -0.875340
			 0.783340 -0.025365 -0.621075
			 0.693495  0.017295 -0.720254
			 0.846587  0.033672 -0.531185
			 0.948591  0.055127 -0.311665
			 0.990841  0.051069 -0.125006
			 0.913936  0.296273 -0.277387
			 0.856617  0.465279 -0.222987
			 0.944016  0.199798 -0.262516
			 0.871416  0.296509 -0.390789
			 0.783979  0.441612 -0.436298
			 0.671335  0.627846 -0.393850
			-0.294033 -0.402238  0.867035
			-0.259365 -0.209820  0.942712
			-0.322832 -0.024509  0.946139
			-0.370933  0.005909  0.928641
			-0.355447 -0.000423  0.934697
			-0.539582  0.005538  0.841915
			-0.484631 -0.092730  0.869790
			-0.518851 -0.028231  0.854398
			-0.664292  0.005635  0.747452
			-0.582514 -0.070667  0.809743
			-0.266060 -0.072876  0.961198
			 0.360003 -0.117860  0.925477
			 0.311173 -0.111910  0.943741
			-0.257232 -0.074911  0.963442
			 0.106429 -0.025028  0.994005
			-0.157028 -0.059511  0.985800
			-0.179136 -0.062719  0.981823
			-0.516493 -0.046488  0.855029
			 0.492139 -0.104585  0.864212
			 0.699384 -0.127002  0.703372
			 0.860181 -0.128026  0.493658
			 0.723171  0.590492 -0.358249
			 0.668920  0.657977 -0.345850
			 0.828720  0.198910 -0.523123
			 0.674985  0.340627 -0.654498
			 0.895776  0.089144 -0.435475
			 0.610438  0.616496 -0.497290
			 0.523401  0.592951 -0.611931
			 0.542540  0.475237 -0.692676
			 0.525300  0.664140 -0.531957
			 0.968489  0.053133 -0.243322
			 0.987018 -0.053228  0.151532
			 0.994674  0.088950  0.052071
			 0.999601  0.019976 -0.019964
			 0.994260  0.015512 -0.105865
			 0.999095  0.033476 -0.026242
			 0.008279 -0.426655  0.904377
			-0.095503 -0.350002  0.931868
			-0.665968 -0.170017  0.726348
			-0.512507 -0.224146  0.828912
			-0.800596 -0.209113  0.561532
			-0.756522 -0.313407  0.573978
			-0.728943 -0.388707  0.563515
			-0.739859 -0.600252  0.303819
			-0.727906 -0.494653  0.474837
			-0.748379 -0.553860  0.364921
			-0.769263 -0.592789  0.238401
			-0.562060 -0.808381  0.174954
			-0.231712 -0.894492  0.382353
			-0.543939 -0.837227  0.056401
			-0.372663 -0.183334  0.909676
			-0.497092 -0.142533  0.855911
			-0.300538 -0.110376  0.947361
			-0.188290 -0.171964  0.966941
			-0.102214 -0.964040 -0.245313
			-0.055507 -0.943430 -0.326894
			 0.114261 -0.907211 -0.404860
			-0.342423 -0.908666 -0.238898
			-0.558215 -0.824012 -0.096957
			-0.587302 -0.808315 -0.041265
			 0.346191 -0.275578 -0.896777
			 0.220196 -0.118219 -0.968266
			 0.319687  0.026323 -0.947158
			 0.443910  0.076969 -0.892759
			 0.583640  0.050185 -0.810460
			 0.178861 -0.714213 -0.676690
			 0.173140 -0.581229 -0.795107
			 0.208866 -0.484998 -0.849207
			 0.174127 -0.407680 -0.896369
			 0.217160 -0.297757 -0.929614
			 0.269099 -0.290272 -0.918329
			-0.123076 -0.866633 -0.483529
			 0.607484  0.244691 -0.755705
			 0.033141  0.147882 -0.988450
			 0.108400  0.258728 -0.959849
			 0.191956  0.194408 -0.961956
			 0.000293  0.173135 -0.984898
			 0.028380  0.255182 -0.966476
			 0.350300  0.330799 -0.876277
			 0.012148  0.668317 -0.743777
			-0.003995  0.412324 -0.911029
			 0.201649  0.431831 -0.879124
			 0.526343  0.308320 -0.792403
			 0.535076  0.123585 -0.835716
			 0.445755  0.365021 -0.817351
			 0.314514  0.355025 -0.880362
			 0.584586  0.272785 -0.764099
			 0.740774  0.150358 -0.654710
			 0.851523  0.159259 -0.499544
			 0.938997  0.158915 -0.305009
			 0.743222  0.496179 -0.448806
			 0.730381  0.323159 -0.601757
			 0.737677  0.472101 -0.482653
			 0.606262  0.575473 -0.548887
			 0.530974  0.642336 -0.552694
			-0.439414 -0.028545  0.897831
			-0.425744  0.010189  0.904786
			-0.423865  0.014806  0.905604
			-0.646474  0.030196  0.762338
			-0.780198  0.117323  0.614432
			-0.658403  0.094924  0.746656
			-0.531361 -0.037195  0.846329
			-0.757649  0.090665  0.646334
			-0.821235  0.073995  0.565772
			-0.729637 -0.016706  0.683631
			-0.632795 -0.031655  0.773672
			-0.702194 -0.030157  0.711347
			-0.310056 -0.057367  0.948986
			-0.359982 -0.048273  0.931710
			 0.495787 -0.113538  0.860990
			 0.363966 -0.056322  0.929708
			 0.275869  0.051662  0.959806
			-0.291863 -0.047587  0.955276
			-0.189742 -0.037048  0.981135
			 0.108912 -0.050015  0.992792
			-0.506764 -0.048105  0.860742
			-0.695194 -0.011682  0.718727
			 0.571152 -0.109273  0.813539
			 0.708156 -0.090089  0.700286
			 0.684176 -0.120458  0.719301
			 0.958643 -0.140363  0.247594
			 0.701378 -0.159989  0.694603
			 0.832120 -0.218595  0.509699
			 0.679070  0.134692 -0.721611
			 0.741952  0.066067 -0.667189
			 0.496067  0.275634 -0.823373
			 0.503823  0.113140 -0.856366
			 0.532195  0.380291 -0.756404
			 0.888077  0.027042 -0.458899
			 0.945914  0.043202 -0.321529
			 0.434479  0.596166 -0.675140
			 0.359729  0.451877 -0.816334
			 0.988974  0.021658 -0.146494
			 0.995056 -0.035488 -0.092757
			 0.984978  0.016995 -0.171844
			 0.945784  0.059067 -0.319382
			-0.870871 -0.113707  0.478179
			-0.855910 -0.076594  0.511422
			-0.592038 -0.060442  0.803640
			-0.766089 -0.045990  0.641087
			-0.891400 -0.284398  0.352880
			-0.939094 -0.138740  0.314411
			-0.879622 -0.411285  0.238976
			-0.910783 -0.386549  0.145098
			-0.910805 -0.399911  0.102496
			-0.771705 -0.624308  0.121287
			-0.773186 -0.634157  0.005373
			-0.540984 -0.834216 -0.106866
			-0.608230 -0.766264 -0.207115
			-0.462000 -0.808428 -0.364692
			-0.773476 -0.632415 -0.042269
			-0.754969 -0.649637 -0.089406
			-0.102560 -0.039569 -0.993939
			 0.099374  0.113268 -0.988582
			 0.044584 -0.213100 -0.976013
			 0.334626  0.232297 -0.913271
			 0.252607  0.125786 -0.959358
			 0.498070  0.200482 -0.843643
			-0.097192 -0.861217 -0.498858
			-0.042743 -0.814057 -0.579210
			 0.024029 -0.698408 -0.715296
			-0.010900 -0.519563 -0.854363
			 0.041161 -0.351850 -0.935151
			-0.397888 -0.837666 -0.374167
			 0.495199  0.450576 -0.742804
			 0.464838  0.390733 -0.794514
			 0.123103  0.343600 -0.931013
			 0.364998  0.526561 -0.767796
			 0.059794  0.575919 -0.815317
			 0.066115  0.724135 -0.686481
			 0.169187  0.663255 -0.729019
			 0.111492  0.704732 -0.700658
			 0.418281  0.460298 -0.783050
			 0.474843  0.426307 -0.769927
			 0.197895  0.474506 -0.857719
			 0.285590  0.641905 -0.711616
			 0.573631  0.354210 -0.738568
			 0.541914  0.563341 -0.623680
			 0.371047  0.668433 -0.644610
			-0.814663  0.075364  0.575016
			-0.816360  0.014063  0.577372
			-0.827256  0.068675  0.557612
			-0.863216  0.117852  0.490886
			-0.899402  0.082957  0.429178
			-0.876452  0.094029  0.472218
			-0.835625  0.011304  0.549183
			-0.803969  0.021265  0.594290
			-0.390826 -0.025706  0.920106
			-0.478087 -0.018422  0.878120
			-0.557679 -0.068719  0.827207
			-0.547628 -0.027221  0.836279
			 0.580227 -0.109035  0.807123
			 0.466050 -0.056702  0.882939
			 0.493479 -0.062603  0.867502
			 0.425347 -0.044580  0.903932
			 0.317938 -0.045455  0.947021
			-0.274658 -0.002891  0.961538
			-0.084441 -0.034605  0.995827
			-0.377600  0.009912  0.925916
			-0.017336 -0.023530  0.999573
			-0.027442 -0.007143  0.999598
			 0.281969 -0.022832  0.959152
			 0.104400 -0.025838  0.994200
			-0.811264 -0.012033  0.584556
			-0.862710  0.044377  0.503748
			-0.673151  0.011458  0.739416
			-0.776271  0.011696  0.630291
			 0.995004 -0.099687 -0.005377
			 0.958380 -0.220387  0.181488
			 0.759911 -0.240925  0.603730
			 0.698852 -0.147097  0.699977
			 0.555288 -0.086234  0.827175
			 0.920385 -0.257428  0.294318
			 0.606062  0.062015 -0.792996
			 0.839649  0.051973 -0.540637
			 0.631090  0.040115 -0.774671
			 0.348544  0.161207 -0.923325
			 0.251773  0.259176 -0.932437
			 0.574863  0.087149 -0.813595
			 0.331614  0.111455 -0.936808
			 0.367747  0.004785 -0.929914
			 0.508836  0.004444 -0.860852
			 0.268135  0.669682 -0.692553
			 0.163190  0.631235 -0.758230
			 0.132659  0.492675 -0.860043
			 0.864702  0.026454 -0.501588
			 0.939197 -0.045191 -0.340392
			 0.749850  0.089601 -0.655513
			-0.987576 -0.042533  0.151279
			-0.928388 -0.082653  0.362303
			-0.967781 -0.035190  0.249322
			-0.975494 -0.055427  0.212932
			-0.902941 -0.056638  0.426016
			-0.997042 -0.067419  0.036911
			-0.965239 -0.228287  0.127275
			-0.972604 -0.232448  0.002954
			-0.914081 -0.405331  0.012726
			-0.920812 -0.387472 -0.044395
			-0.873195 -0.480359 -0.082375
			-0.743896 -0.617224 -0.256229
			-0.719913 -0.602678 -0.344245
			-0.525395 -0.773166 -0.355210
			-0.913274 -0.405459 -0.039150
			-0.125473  0.137499 -0.982522
			-0.350906 -0.111518 -0.929747
			-0.251921  0.008568 -0.967710
			-0.119249 -0.199767 -0.972560
			 0.062508  0.279076 -0.958233
			 0.207154  0.250982 -0.945566
			 0.305320  0.318772 -0.897309
			 0.330374  0.478454 -0.813593
			-0.352753 -0.862203 -0.363552
			-0.255394 -0.826882 -0.501039
			-0.156246 -0.700577 -0.696261
			-0.337396 -0.606235 -0.720169
			-0.294840 -0.466290 -0.834053
			-0.244770 -0.296610 -0.923098
			 0.415917  0.603842 -0.679991
			 0.436435  0.564544 -0.700582
			 0.439418  0.537703 -0.719575
			 0.312131  0.522083 -0.793727
			 0.461663  0.546867 -0.698429
			 0.156112  0.574828 -0.803244
			 0.045314  0.515595 -0.855634
			 0.422932  0.721762 -0.547895
			 0.484938  0.619894 -0.616900
			 0.413004  0.581672 -0.700775
			 0.400374  0.795561 -0.454735
			-0.958496 -0.059670  0.278792
			-0.938309  0.128193  0.321159
			-0.973577  0.142358  0.178553
			-0.971892  0.077301  0.222376
			-0.908570  0.030350  0.416628
			-0.959832  0.015670  0.280137
			-0.886058  0.004936  0.463548
			-0.873537  0.020458  0.486328
			-0.494995 -0.006207  0.868874
			-0.571613 -0.002344  0.820520
			 0.471657 -0.040074  0.880871
			 0.326277 -0.018188  0.945099
			-0.138577 -0.010376  0.990297
			-0.522657  0.009505  0.852490
			-0.382357  0.014471  0.923901
			-0.123195 -0.030024  0.991928
			 0.085025 -0.006411  0.996358
			-0.885654  0.036135  0.462938
			-0.844544  0.022544  0.535011
			-0.923488  0.046521  0.380797
			-0.959745  0.062122  0.273917
			-0.682130  0.030363  0.730600
			-0.799834  0.047260  0.598358
			 0.969754 -0.145285 -0.196136
			 0.966079 -0.232898 -0.111577
			 0.860981 -0.186755  0.473111
			 0.906170 -0.123526  0.404471
			 0.626420 -0.112545  0.771318
			 0.762688 -0.099328  0.639093
			 0.572572 -0.063039  0.817428
			 0.976979 -0.177268  0.118694
			 0.584439  0.000722 -0.811437
			 0.658771  0.075430 -0.748553
			 0.244099  0.070883 -0.967156
			 0.035297  0.340403 -0.939617
			 0.269859  0.224031 -0.936475
			 0.149905  0.085369 -0.985008
			 0.446158 -0.025685 -0.894585
			 0.345750 -0.083773 -0.934580
			 0.311616 -0.059620 -0.948336
			 0.311943 -0.033246 -0.949519
			 0.318978  0.003622 -0.947755
			 0.575137  0.036567 -0.817240
			 0.523939 -0.002264 -0.851753
			 0.242191  0.390252 -0.888283
			 0.664447  0.040962 -0.746212
			 0.710507  0.019611 -0.703417
			 0.805490  0.035818 -0.591526
			 0.885836 -0.043207 -0.461982
			 0.877880 -0.037262 -0.477428
			-0.998566 -0.005912 -0.053199
			-0.997868 -0.034123  0.055628
			-0.996310 -0.006511 -0.085579
			-0.983136 -0.177577 -0.043703
			-0.925095 -0.367295 -0.096401
			-0.881189 -0.406545 -0.241304
			-0.695572 -0.557274 -0.453459
			-0.900231 -0.358933 -0.246478
			-0.449609 -0.736426 -0.505497
			-0.269879  0.033379 -0.962315
			-0.070529  0.178018 -0.981496
			-0.541594 -0.196633 -0.817320
			-0.638119 -0.135611 -0.757901
			-0.561695 -0.075537 -0.823889
			 0.279210  0.467911 -0.838511
			 0.319158  0.448879 -0.834653
			 0.061412  0.349898 -0.934773
			 0.359278  0.495369 -0.790904
			 0.392035  0.649754 -0.651251
			-0.516082 -0.512953 -0.685958
			-0.491178 -0.341137 -0.801480
			-0.582720 -0.410359 -0.701457
			 0.374772  0.650011 -0.661084
			 0.473434  0.536486 -0.698601
			 0.391216  0.514891 -0.762783
			 0.457811  0.369320 -0.808710
			 0.201368  0.370683 -0.906667
			 0.346679  0.328990 -0.878396
			 0.499347  0.573465 -0.649454
			 0.490949  0.308632 -0.814688
			 0.483991  0.350107 -0.801984
			 0.125692  0.261410 -0.957009
			 0.059328  0.433356 -0.899268
			 0.707755  0.295199 -0.641826
			-0.959862 -0.172020  0.221527
			-0.931466 -0.337336  0.136290
			-0.979781 -0.171480  0.103071
			-0.992286 -0.097881  0.076084
			-0.982350  0.167248  0.083759
			-0.974885  0.181747  0.128713
			-0.985792  0.147840 -0.079728
			-0.996507  0.055282  0.062597
			-0.981111  0.060131  0.183864
			-0.995531  0.093415  0.013853
			-0.984068 -0.102618  0.145186
			 0.446609 -0.028716  0.894268
			 0.483610 -0.042272  0.874262
			 0.451489 -0.031088  0.891735
			 0.270722 -0.019074  0.962469
			 0.083910  0.001727  0.996472
			-0.584026  0.041400  0.810678
			-0.180314 -0.006619  0.983587
			-0.300750  0.017249  0.953547
			-0.490682  0.032497  0.870733
			-0.573673  0.078165  0.815346
			-0.116984  0.005636  0.993118
			-0.956436  0.046904  0.288151
			-0.902739  0.048510  0.427446
			-0.901343  0.065560  0.428116
			-0.999185  0.038707 -0.011442
			-0.999863  0.015498 -0.005738
			-0.978691  0.072301  0.192188
			-0.704135  0.049672  0.708327
			-0.829588  0.071892  0.553728
			-0.897348  0.061557  0.437010
			 0.889336 -0.135521 -0.436709
			 0.963294 -0.159580 -0.215869
			 0.988420 -0.142805  0.051319
			 0.956330 -0.134674  0.259414
			 0.730424 -0.074995  0.678864
			 0.886867 -0.142883  0.439377
			 0.514771 -0.054383  0.855601
			 0.827197  0.186277 -0.530137
			 0.712464  0.167066 -0.681531
			 0.019301  0.183730 -0.982787
			 0.200942  0.067745 -0.977258
			 0.065966  0.181739 -0.981132
			 0.409298 -0.054449 -0.910775
			 0.540357 -0.018196 -0.841239
			 0.239047 -0.019202 -0.970818
			 0.134690 -0.019796 -0.990690
			 0.134293 -0.039600 -0.990150
			 0.260650 -0.019038 -0.965246
			 0.429852 -0.026857 -0.902500
			 0.369685 -0.023179 -0.928868
			 0.329647 -0.056947 -0.942385
			 0.376653  0.030295 -0.925859
			 0.333688  0.086224 -0.938732
			 0.256170  0.090615 -0.962375
			 0.110496  0.109637 -0.987811
			 0.609944 -0.006174 -0.792420
			 0.638761 -0.007012 -0.769373
			 0.770771 -0.040165 -0.635845
			 0.699271 -0.012403 -0.714750
			-0.988684 -0.149560  0.011637
			-0.998495 -0.053805 -0.010653
			-0.991881 -0.126224 -0.015484
			-0.965244 -0.219526 -0.141819
			-0.917992 -0.349754 -0.186982
			-0.772910 -0.417189 -0.478084
			-0.415299  0.033190 -0.909079
			-0.080638  0.155256 -0.984578
			-0.745480 -0.319669 -0.584869
			-0.732835 -0.214089 -0.645847
			-0.816802 -0.096032 -0.568869
			-0.831096 -0.136640 -0.539081
			-0.778416 -0.038667 -0.626557
			 0.447870  0.587067 -0.674363
			 0.474211  0.533782 -0.700144
			 0.289502  0.505629 -0.812729
			 0.424657  0.644782 -0.635549
			-0.195780  0.451253 -0.870656
			 0.071079  0.518268 -0.852259
			-0.264969  0.262868 -0.927735
			 0.227206  0.529922 -0.817044
			 0.397115  0.695680 -0.598605
			-0.820929 -0.336554 -0.461310
			 0.338989  0.552356 -0.761571
			 0.578635  0.440882 -0.686152
			 0.526312  0.342124 -0.778426
			 0.337432  0.456502 -0.823253
			 0.341855  0.346716 -0.873455
			 0.498853  0.145803 -0.854334
			 0.420952  0.164835 -0.891980
			 0.255086  0.151209 -0.955022
			 0.511109  0.162690 -0.843978
			 0.462703  0.043478 -0.885447