<?xml version="1.0"?>
<VTKFile type="PolyData" version="0.1" byte_order="LittleEndian" compressor="vtkZLibDataCompressor">
	<PolyData>
		<Piece NumberOfPoints="1502" NumberOfVerts="0" NumberOfLines="0" NumberOfStrips="0" NumberOfPolys="3001">
		<PointData Normals="Normals">
		<DataArray type="Float32" Name="Normals" NumberOfComponents="3" format="ascii">
			 0.955204 -0.157709 -0.250427
			 0.962505 -0.144719 -0.229437
			 0.916868 -0.121231  0.380337
			 0.966973 -0.192688 -0.166838
			 0.878711 -0.122593 -0.461343
			 0.864618 -0.153512 -0.478403
			 0.968418 -0.123380 -0.216664
			 0.846613 -0.148515  0.511068
			 0.967508 -0.168917 -0.188138
			 0.366810 -0.037806  0.929527
			-0.064772  0.033218  0.997347
			 0.748721 -0.060410  0.660127
			-0.047317  0.065073  0.996758
			 0.990623 -0.103844 -0.088785
			 0.885104 -0.198567 -0.420905
			 0.922876 -0.217061 -0.318093
			 0.927409 -0.122053 -0.353575
			 0.772929 -0.110738 -0.624754
			 0.724033 -0.124057 -0.678518
			 0.725741 -0.137581 -0.674071
			 0.951209 -0.183244  0.248241
			 0.615433 -0.064114  0.785577
			 0.957498 -0.174256 -0.229853
			 0.060164  0.045851  0.997135
			-0.334851  0.084887  0.938440
			-0.465570  0.083524  0.881061
			-0.437478  0.098906  0.893773
			-0.009189  0.023048  0.999692
			 0.653694 -0.063423  0.754097
			 0.991854 -0.087546 -0.092526
			-0.337448  0.070808  0.938677
			-0.380079  0.104667  0.919013
			 0.952238 -0.088305 -0.292310
			 0.815326 -0.204168 -0.541811
			 0.912629 -0.193242 -0.360229
			 0.804503 -0.063940 -0.590498
			 0.635336 -0.029639 -0.771667
			 0.600793 -0.097507 -0.793436
			 0.586834 -0.098092 -0.803744
			 0.599075 -0.070239 -0.797606
			 0.793625 -0.160152 -0.586950
			 0.978620 -0.173809  0.109968
			 0.501725 -0.062559  0.862762
			 0.170034  0.030847  0.984955
			-0.382806  0.109315  0.917338
			-0.574871  0.098777  0.812260
			-0.623799  0.122773  0.771882
			-0.636207  0.181093  0.749964
			 0.055163  0.013497  0.998386
			-0.158821 -0.010624  0.987250
			 0.888901 -0.128930  0.439582
			 0.903106 -0.062628 -0.424826
			-0.548810  0.066246  0.833318
			 0.790982 -0.035702 -0.610797
			 0.965384 -0.108143 -0.237359
			 0.578621  0.038360 -0.814694
			 0.484424 -0.039749 -0.873930
			 0.499156  0.083520 -0.862478
			 0.479839 -0.066442 -0.874837
			 0.445653 -0.005578 -0.895188
			 0.342123  0.044165 -0.938617
			 0.677894 -0.081757 -0.730600
			 0.493690 -0.048223 -0.868300
			 0.560055 -0.027693  0.827993
			-0.192217  0.061551  0.979420
			-0.132957  0.072175  0.988490
			-0.384595  0.127667  0.914214
			-0.777517  0.113726  0.618493
			-0.783439  0.135862  0.606436
			-0.774961  0.163640  0.610457
			-0.820325  0.253961  0.512416
			-0.762391  0.309534  0.568285
			-0.491884  0.181793  0.851470
			-0.852914  0.242254  0.462440
			-0.529252  0.039415  0.847549
			 0.029368 -0.077647  0.996548
			 0.863013 -0.245693  0.441411
			 0.933628 -0.246818 -0.259652
			 0.908255 -0.131218 -0.397310
			 0.643286 -0.026673 -0.765161
			 0.583970 -0.067943 -0.808927
			-0.756525  0.086308  0.648245
			 0.984038 -0.008743 -0.177744
			 0.841881 -0.068810 -0.535258
			 0.780292 -0.033160 -0.624536
			 0.818153  0.043652  0.573342
			 0.401189  0.038343 -0.915192
			 0.333338  0.150220 -0.930763
			-0.090304  0.061845 -0.993992
			-0.073773  0.178988 -0.981082
			 0.151891  0.047968 -0.987233
			 0.257101  0.077942 -0.963236
			 0.004223  0.147832 -0.989003
			 0.406573  0.025043 -0.913275
			 0.560268 -0.060331 -0.826111
			 0.518467 -0.017651 -0.854916
			 0.458970  0.019953 -0.888227
			 0.531367  0.008186 -0.847102
			 0.698279 -0.101168 -0.708640
			-0.075026  0.127183  0.989038
			-0.324631  0.130115  0.936848
			-0.895365  0.129790  0.425999
			-0.882880  0.166115  0.439237
			-0.870002  0.201375  0.450051
			-0.875973  0.481164 -0.033943
			-0.930189  0.357652  0.082661
			-0.893923  0.290979  0.340929
			-0.636270  0.191609  0.747293
			-0.822298  0.378067  0.425313
			-0.831952  0.212539  0.512525
			-0.403163  0.153639  0.902139
			-0.285612  0.147659  0.946902
			-0.311328  0.145607  0.939081
			-0.918196  0.235028  0.318871
			-0.920639  0.307477  0.240587
			-0.531002  0.011035  0.847299
			-0.741103  0.068210  0.667918
			 0.146900 -0.101245  0.983956
			-0.434494 -0.007714  0.900642
			 0.557269 -0.316622  0.767595
			 0.910950 -0.311472 -0.270472
			 0.804998 -0.191847 -0.561402
			 0.824829 -0.257999 -0.503085
			 0.423855 -0.075849 -0.902548
			 0.220840 -0.029747 -0.974856
			 0.654606 -0.130403 -0.744638
			-0.366728  0.163362 -0.915873
			-0.902549  0.115910  0.414693
			 0.906800 -0.067930 -0.416052
			 0.990273  0.019807  0.137720
			 0.998657 -0.006706 -0.051372
			 0.792704 -0.169639 -0.585528
			 0.976442 -0.051852 -0.209457
			 0.733262 -0.078508 -0.675399
			 0.591445  0.097919  0.800378
			-0.866996  0.273256 -0.416713
			-0.915544  0.201834 -0.347911
			-0.958808  0.227177 -0.170519
			-0.984068  0.174593 -0.033571
			-0.876474  0.313781 -0.365150
			 0.120301  0.195617 -0.973274
			-0.604979  0.384350 -0.697335
			 0.276959  0.132453 -0.951709
			 0.399936 -0.044754 -0.915450
			 0.398045 -0.129407 -0.908193
			 0.112736 -0.131472 -0.984889
			 0.304069  0.030097 -0.952175
			 0.687107 -0.203112 -0.697588
			 0.575847 -0.194721 -0.794030
			 0.655369 -0.231092 -0.719088
			 0.092288  0.130924  0.987088
			-0.920544  0.123039  0.370756
			-0.907862  0.153647  0.390102
			-0.905779  0.183591  0.381915
			-0.782243  0.616807 -0.087434
			-0.809085  0.476195 -0.344412
			-0.298492  0.469812 -0.830771
			-0.599846  0.089603  0.795083
			-0.802624  0.138106  0.580277
			-0.835501  0.181369  0.518694
			-0.856205  0.435541  0.277878
			-0.837830  0.356265  0.413662
			-0.909525  0.144886  0.389579
			-0.897171  0.189706  0.398868
			-0.441929  0.017715  0.896875
			-0.135571  0.141036  0.980678
			-0.568019  0.072062  0.819855
			 0.155814  0.136703  0.978281
			-0.566161  0.176929  0.805083
			-0.153553  0.184511  0.970761
			 0.223245  0.164691  0.960749
			-0.758970  0.041078  0.649829
			-0.924642  0.089763  0.370108
			-0.331174 -0.002222  0.943567
			 0.024333 -0.039025  0.998942
			-0.698462  0.022318  0.715299
			 0.479962 -0.655729  0.582800
			-0.341664 -0.107353  0.933671
			-0.078165 -0.057605  0.995275
			 0.957205 -0.271254 -0.100892
			 0.758499 -0.086291 -0.645936
			 0.759223 -0.175765 -0.626647
			 0.162793 -0.005142 -0.986647
			 0.410886 -0.033277 -0.911079
			-0.474750  0.136004 -0.869549
			-0.798400  0.163210 -0.579586
			 0.574329 -0.075425 -0.815143
			-0.984932  0.093820  0.145278
			-0.944366  0.123456  0.304846
			 0.800764  0.030615  0.598197
			 0.822493 -0.163946 -0.544635
			 0.727228 -0.383401 -0.569336
			 0.739314 -0.265748 -0.618702
			 0.995942  0.012509  0.089127
			 0.971960 -0.119645 -0.202432
			 0.817958  0.086573  0.568727
			 0.129532  0.250159 -0.959501
			-0.006186  0.337133 -0.941437
			 0.319817 -0.081824 -0.943940
			 0.151914 -0.094430 -0.983873
			 0.398772 -0.245493 -0.883581
			-0.016246 -0.153371 -0.988035
			-0.228778 -0.088169 -0.969478
			-0.028449 -0.218621 -0.975395
			-0.394015 -0.163836 -0.904384
			 0.215866  0.151286 -0.964632
			 0.827687 -0.264325 -0.495042
			 0.706525 -0.182291 -0.683807
			 0.321742 -0.170182 -0.931408
			-0.788404  0.581305 -0.201255
			-0.558046 -0.008086  0.829771
			-0.719835  0.180999  0.670133
			-0.871367  0.262594  0.414444
			-0.870461  0.078506  0.485937
			-0.814213  0.332105  0.476197
			-0.883606  0.041195  0.466416
			-0.907581  0.310449  0.282699
			-0.984378  0.173345  0.030848
			-0.607378  0.093854  0.788849
			-0.647721 -0.041383  0.760753
			 0.708763  0.135421  0.692327
			-0.350008 -0.024426  0.936428
			 0.840046  0.070313  0.537939
			 0.320744 -0.258307  0.911263
			-0.947295  0.064707  0.313760
			-0.886046  0.046532  0.461257
			-0.262861  0.005777  0.964816
			-0.598739  0.019528  0.800706
			-0.900535  0.056867  0.431048
			-0.480261 -0.807538 -0.342391
			 0.917813 -0.178805 -0.354468
			-0.361428 -0.003062  0.932395
			-0.883795  0.047773  0.465428
			-0.156569 -0.070182  0.985170
			-0.227361 -0.019731  0.973611
			 0.837212  0.141528 -0.528248
			 0.608113 -0.011178 -0.793772
			 0.103674  0.064230 -0.992535
			-0.590290  0.176718 -0.787609
			 0.375457  0.076139 -0.923707
			-0.992217  0.111759  0.054914
			 0.732351 -0.613335 -0.295774
			 0.508170 -0.845909 -0.161867
			 0.795439 -0.543728 -0.267651
			 0.845317 -0.369809  0.385591
			-0.671336  0.671217 -0.314285
			-0.135480  0.424987 -0.895004
			 0.493752  0.018397 -0.869408
			 0.197969 -0.478949 -0.855229
			 0.625503 -0.150728 -0.765524
			-0.143343 -0.179627 -0.973235
			-0.471251 -0.074661 -0.878833
			-0.317827 -0.382914 -0.867389
			-0.351981 -0.284719 -0.891653
			-0.396110 -0.134497 -0.908299
			-0.578229 -0.168243 -0.798339
			 0.158723  0.191105 -0.968652
			-0.098121  0.351970 -0.930854
			 0.851106 -0.202345 -0.484433
			 0.924861 -0.348521 -0.152203
			 0.943337 -0.277819 -0.181474
			 0.617208 -0.141654 -0.773944
			 0.063021 -0.075307 -0.995167
			-0.294890 -0.019257 -0.955337
			-0.404191 -0.064158 -0.912422
			-0.356481 -0.120641 -0.926481
			-0.605747 -0.033813  0.794938
			-0.668865  0.075242  0.739566
			-0.698853 -0.364842  0.615219
			-0.670159 -0.147068  0.727501
			-0.727041 -0.178795  0.662906
			-0.808094  0.188773  0.557986
			-0.813675  0.420463  0.401427
			-0.828793  0.367797  0.421696
			-0.751650  0.046254  0.657939
			-0.815594 -0.213005  0.537992
			-0.606316 -0.028513 -0.794713
			-0.954150  0.255163  0.156489
			-0.594671 -0.755916 -0.273783
			-0.327956 -0.174776 -0.928385
			-0.626664 -0.008793  0.779240
			-0.501791 -0.075076  0.861725
			-0.295055 -0.601471  0.742411
			-0.175064 -0.635547  0.751952
			 0.271443 -0.902985  0.333071
			-0.475073 -0.006882  0.879919
			-0.833587  0.066451  0.548377
			-0.974449  0.165941 -0.151368
			-0.945594  0.006018  0.325293
			-0.793632 -0.482283 -0.370880
			 0.421080 -0.343550 -0.839443
			 0.265750 -0.258456 -0.928750
			 0.351761  0.002177 -0.936087
			 0.589741  0.144787 -0.794508
			 0.851652  0.093013 -0.515788
			-0.682023 -0.276514  0.677041
			-0.122026 -0.284091  0.951001
			-0.957462 -0.015651  0.288135
			-0.204524 -0.073806  0.976075
			-0.334752 -0.038403  0.941523
			 0.527988  0.122530 -0.840366
			 0.572459  0.102418 -0.813512
			 0.141525  0.134627 -0.980738
			-0.527823  0.182796 -0.829451
			 0.116274 -0.990972  0.066744
			 0.546026 -0.802961  0.238973
			 0.899352 -0.430896 -0.074132
			-0.816627  0.418089  0.397896
			-0.643676  0.565625 -0.515510
			 0.521510 -0.018876 -0.853036
			 0.691979 -0.538345 -0.480988
			 0.588505 -0.119886 -0.799555
			-0.698459 -0.098505 -0.708838
			-0.585352 -0.432611 -0.685720
			-0.905891 -0.384792 -0.176908
			-0.258656  0.438457 -0.860728
			 0.689771 -0.168279 -0.704200
			 0.892035 -0.250264 -0.376352
			 0.874919 -0.358978  0.325042
			 0.840766 -0.391635  0.373811
			 0.941178 -0.337514 -0.016362
			 0.838498 -0.397920  0.372265
			 0.607602 -0.104130 -0.787386
			 0.015152 -0.009290 -0.999842
			-0.821213  0.092722 -0.563038
			-0.942844 -0.009549 -0.333097
			-0.888659  0.051491 -0.455668
			-0.876164 -0.076813 -0.475854
			-0.747058 -0.070348  0.661027
			-0.891798 -0.130080  0.433331
			-0.692796 -0.691068  0.206056
			-0.982268 -0.177915  0.059133
			-0.832003 -0.544442  0.106558
			-0.414840 -0.042016  0.908924
			 0.830853 -0.554038  0.052204
			-0.369859 -0.152608  0.916469
			-0.618200 -0.019147  0.785788
			 0.414702 -0.432693  0.800499
			 0.973955 -0.022263  0.225646
			-0.703623  0.381177  0.599682
			-0.940116  0.128159 -0.315845
			-0.881396 -0.098649  0.461963
			-0.896274 -0.053960  0.440205
			-0.913466 -0.251776  0.319668
			 0.236805 -0.547423 -0.802653
			-0.402226 -0.805977 -0.434300
			 0.898806 -0.263063 -0.350637
			 0.688617 -0.123601 -0.714514
			 0.763945 -0.500375 -0.407446
			 0.479803 -0.013480 -0.877273
			 0.427837  0.146646 -0.891880
			 0.369222  0.130347 -0.920155
			 0.608321 -0.067448 -0.790820
			 0.814105 -0.052864 -0.578307
			 0.692153 -0.007913 -0.721707
			-0.892465 -0.308993  0.328679
			-0.497550 -0.584757  0.640705
			-0.443986 -0.476141  0.759056
			-0.439855 -0.125601  0.889242
			-0.537829 -0.083656  0.838893
			 0.948468  0.005618  0.316824
			 0.443354 -0.027609 -0.895921
			-0.170031  0.013445 -0.985347
			 0.853007 -0.470580  0.225686
			-0.732153  0.407162  0.546050
			-0.339040  0.243113  0.908817
			-0.751461  0.547557  0.368086
			 0.747066 -0.340317 -0.571032
			 0.280253  0.008998 -0.959884
			-0.988350 -0.057372  0.140969
			-0.635304  0.575919 -0.514496
			 0.910197 -0.231298 -0.343573
			 0.082630 -0.266698  0.960231
			 0.135675 -0.390856  0.910397
			 0.707784 -0.342765  0.617700
			 0.966129 -0.222229  0.131184
			 0.961256  0.065241 -0.267826
			 0.423998  0.148631 -0.893384
			-0.896598  0.160546 -0.412720
			-0.362985  0.330131 -0.871352
			-0.974746  0.098368  0.200483
			-0.993050  0.093988  0.070841
			-0.914662  0.060742  0.399630
			-0.841815 -0.039890  0.538290
			-0.719569 -0.087022  0.688947
			-0.817902  0.053892  0.572828
			-0.924415 -0.019177  0.380905
			-0.003846  0.276162  0.961103
			 0.956252 -0.291828 -0.020438
			 0.832294 -0.522584 -0.184913
			-0.549793 -0.096074  0.829757
			 0.974733  0.016807  0.222739
			-0.958947  0.031495 -0.281832
			-0.697709 -0.018379  0.716145
			-0.934368  0.044575  0.353511
			-0.729392 -0.636776 -0.250006
			-0.863391 -0.502606 -0.044076
			-0.656876 -0.272392  0.703077
			-0.528872 -0.026744  0.848280
			-0.652261 -0.127641  0.747170
			-0.646917 -0.565850  0.511187
			 0.248041 -0.968431  0.024836
			 0.975114 -0.118225 -0.187551
			 0.879319 -0.003289 -0.476222
			 0.614754  0.054306 -0.786847
			 0.902410 -0.261496  0.342456
			 0.721196 -0.619252  0.310488
			 0.375095  0.176744 -0.909981
			 0.512225 -0.107982 -0.852036
			 0.501385 -0.215641 -0.837922
			 0.546724 -0.242304 -0.801487
			 0.673584 -0.252938 -0.694483
			 0.623570 -0.170421 -0.762966
			 0.481697 -0.100040 -0.870609
			-0.647275 -0.762231 -0.006153
			-0.455361 -0.860887  0.226981
			-0.571321 -0.176871  0.801442
			-0.509590 -0.821270  0.256582
			-0.722540 -0.389136  0.571410
			 0.433855 -0.081868 -0.897255
			 0.327514 -0.068368 -0.942369
			-0.921364 -0.114399 -0.371486
			-0.129612 -0.099781 -0.986532
			-0.473584  0.299055  0.828423
			-0.793955  0.556576  0.244659
			 0.362695  0.592005  0.719709
			 0.886853  0.202085  0.415516
			 0.639719 -0.470661 -0.607649
			-0.323006  0.185778 -0.927984
			 0.307623 -0.219299 -0.925892
			-0.884360  0.422269 -0.198987
			-0.381013 -0.289309  0.878140
			 0.918829 -0.017126  0.394285
			 0.018758 -0.264834  0.964112
			 0.346478 -0.076851  0.934905
			 0.982052  0.044558  0.183270
			 0.551120  0.476255 -0.685163
			 0.891566  0.381491 -0.244081
			 0.976421  0.164791  0.139447
			 0.089076  0.512388 -0.854122
			-0.372146  0.594374 -0.712900
			-0.725099  0.075545  0.684488
			-0.883832  0.459627  0.087087
			-0.743277  0.566554 -0.355747
			-0.747889 -0.018194  0.663574
			 0.757110  0.105457  0.644719
			 0.065090  0.319777  0.945254
			 0.823718 -0.442229 -0.354856
			 0.863122 -0.474722 -0.172221
			 0.682556 -0.708536 -0.179146
			 0.452821 -0.848199 -0.274793
			-0.927584 -0.161325  0.336991
			-0.946978 -0.054051  0.316718
			-0.951607  0.010649  0.307132
			-0.942404 -0.010811  0.334301
			-0.176943 -0.524413 -0.832876
			-0.166470 -0.652336 -0.739423
			-0.016372 -0.441039 -0.897339
			 0.525345 -0.496167  0.691253
			 0.235861 -0.141476  0.961433
			 0.124322 -0.500244  0.856913
			 0.929970 -0.240449  0.278100
			 0.871622 -0.119550 -0.475377
			 0.740027  0.096753 -0.665582
			-0.022370 -0.627837 -0.778023
			 0.187140 -0.411188 -0.892134
			 0.157437 -0.549886 -0.820268
			 0.276487 -0.604759 -0.746875
			 0.422220 -0.524988 -0.738998
			 0.441350 -0.361343 -0.821365
			 0.356693 -0.343086 -0.868943
			 0.314415 -0.306823 -0.898333
			-0.071778 -0.752668 -0.654476
			-0.336331 -0.909002 -0.246163
			-0.376962 -0.922890 -0.078567
			-0.401337 -0.903700 -0.149183
			-0.383279 -0.836868 -0.390832
			 0.058334 -0.070244 -0.995823
			 0.100994 -0.346378 -0.932643
			-0.876523 -0.047707 -0.478990
			-0.857946  0.400427  0.321850
			-0.815151  0.173175  0.552755
			 0.695920  0.209813  0.686785
			 0.946164  0.115044  0.302555
			 0.252497 -0.515730 -0.818699
			-0.857998  0.044657 -0.511709
			-0.178591 -0.190288 -0.965348
			-0.970424  0.219744  0.099946
			-0.146891  0.233129  0.961287
			 0.253247  0.203936  0.945662
			 0.819899  0.217023  0.529780
			 0.189687  0.837389 -0.512639
			 0.591220  0.707017 -0.388055
			 0.438939  0.825435 -0.354949
			 0.698732  0.582223  0.415681
			 0.698038  0.711609  0.079720
			 0.634294  0.735281 -0.238818
			-0.254809  0.910186 -0.326547
			-0.772682  0.634715  0.009902
			-0.692377  0.234855  0.682245
			-0.668490  0.519392  0.532309
			-0.601299  0.410894  0.685278
			 0.230879 -0.340153  0.911587
			-0.002182  0.309640  0.950851
			-0.105788 -0.783181  0.612729
			-0.700438 -0.554156  0.449776
			-0.556892 -0.593383 -0.581178
			-0.875754 -0.476685  0.076335
			-0.685028 -0.061625 -0.725905
			-0.876186 -0.387770 -0.286239
			 0.268083 -0.283886 -0.920620
			 0.215811 -0.385151 -0.897265
			-0.031690 -0.324835 -0.945240
			-0.358133 -0.266635 -0.894789
			 0.116603 -0.801774 -0.586142
			-0.246582 -0.513807 -0.821705
			 0.402794 -0.808150 -0.429710
			-0.184692 -0.609840 -0.770703
			-0.338782 -0.690777 -0.638792
			-0.736519 -0.607902 -0.296639
			-0.409213 -0.742080 -0.530906
			 0.067571 -0.703496 -0.707480
			 0.257372 -0.576293 -0.775658
			 0.269923 -0.468146 -0.841416
			 0.166704 -0.633086 -0.755918
			 0.126330 -0.711412 -0.691327
			 0.266309 -0.510912 -0.817343
			 0.158411 -0.734926 -0.659385
			 0.155909 -0.732815 -0.662326
			 0.176209 -0.698743 -0.693332
			 0.310276 -0.650034 -0.693675
			 0.075709 -0.828060 -0.555504
			-0.004763 -0.520365 -0.853931
			 0.157529 -0.743209 -0.650250
			-0.690887 -0.022955  0.722598
			-0.985532 -0.091390  0.142739
			-0.505369  0.021294  0.862641
			 0.152857  0.549185  0.821602
			-0.324231  0.495599  0.805764
			 0.104722  0.991035 -0.082968
			 0.384654  0.908499 -0.163311
			 0.452871  0.852187 -0.262077
			 0.544550  0.833608 -0.092537
			 0.605771  0.741522 -0.288419
			 0.176783  0.823094  0.539689
			 0.397079  0.849137  0.348273
			 0.364853  0.916377  0.164729
			 0.494937  0.849702 -0.181782
			 0.610384  0.740706 -0.280688
			-0.521156  0.807102  0.277458
			-0.061828  0.975316  0.211981
			-0.624986  0.628275  0.463318
			-0.540630  0.501317  0.675574
			-0.372380  0.730571  0.572363
			-0.557392  0.613996  0.558859
			-0.369257 -0.891943 -0.260934
			 0.179648 -0.910905 -0.371456
			 0.413320 -0.331795 -0.847985
			 0.087937 -0.217821 -0.972019
			 0.527584 -0.227832 -0.818381
			 0.526702 -0.166582 -0.833568
			 0.317652 -0.162741 -0.934137
			-0.269072 -0.154988 -0.950568
			-0.444221 -0.309264 -0.840847
			-0.581093 -0.099933 -0.807678
			-0.788590 -0.078648 -0.609869
			-0.522155 -0.458251 -0.719277
			-0.649809 -0.537168 -0.537772
			-0.823612 -0.526067 -0.211933
			-0.929001 -0.336379  0.154294
			-0.876976 -0.405735  0.257473
			-0.605305 -0.761062 -0.233215
			-0.537194 -0.800973 -0.264319
			-0.369686 -0.837110 -0.403211
			-0.223829 -0.841748 -0.491285
			-0.309341 -0.933285 -0.182447
			-0.230679 -0.967228 -0.106097
			 0.126117 -0.944153 -0.304416
			-0.149929 -0.987043  0.057163
			 0.312156 -0.581406 -0.751349
			 0.310946 -0.609953 -0.728882
			 0.383345 -0.584512 -0.715117
			 0.444616 -0.606216 -0.659408
			 0.508652 -0.545769 -0.665890
			 0.384743 -0.734958 -0.558400
			 0.360942 -0.827169 -0.430712
			 0.307748 -0.938332 -0.157558
			 0.406610  0.748340  0.524076
			 0.047188  0.656661  0.752708
			-0.316724  0.728917  0.606932
			-0.293242  0.612083  0.734414
			 0.322600  0.941095  0.101332
			 0.588486  0.803448 -0.090307
			 0.606295  0.769815 -0.199479
			 0.587149  0.790225 -0.175502
			 0.594552  0.782060 -0.186788
			 0.561964  0.794856 -0.228910
			-0.008512  0.954933  0.296701
			-0.124500  0.928207  0.350616
			 0.142345  0.974081  0.175793
			 0.172471  0.984692 -0.025218
			 0.340997  0.935795 -0.089496
			 0.460885  0.851181 -0.251147
			 0.224794  0.918512 -0.325275
			 0.245276  0.907080 -0.342118
			-0.482865  0.757390  0.439548
			-0.228443  0.842758  0.487415
			 0.151359  0.879106  0.451955
			-0.412158  0.752482  0.513709
			 0.058752  0.984059  0.167856
			 0.115000  0.969939  0.214462
			-0.268092  0.812473  0.517701
			 0.212873 -0.923059 -0.320387
			 0.225259 -0.974001 -0.024102
			 0.481004 -0.870134 -0.107245
			 0.609750 -0.782241 -0.127685
			 0.495850 -0.334598 -0.801360
			 0.020374 -0.135085 -0.990625
			 0.556754 -0.288659 -0.778910
			 0.657276 -0.230944 -0.717394
			 0.349868 -0.134180 -0.927140
			 0.560952 -0.045438 -0.826600
			 0.655426 -0.061780 -0.752729
			-0.650882  0.006964 -0.759147
			-0.340217 -0.070491 -0.937701
			-0.687237 -0.172870 -0.705565
			-0.862452  0.022252 -0.505650
			-0.891786 -0.118522 -0.436657
			-0.928943  0.005362 -0.370185
			-0.956957  0.017926 -0.289675
			-0.991031  0.085416 -0.102765
			-0.866397 -0.302215 -0.397520
			-0.948828 -0.301937 -0.092518
			-0.936725 -0.327901  0.122583
			-0.908898 -0.196717  0.367706
			-0.941921 -0.115742  0.315259
			-0.789188 -0.604079  0.110768
			-0.770800 -0.631238  0.086055
			-0.806478 -0.094325  0.583692
			-0.841143 -0.389107  0.375598
			-0.851686 -0.144590  0.503710
			-0.764961 -0.591489  0.254903
			-0.677879 -0.637997  0.365295
			-0.564596 -0.668849  0.483603
			-0.430502 -0.702855  0.566270
			-0.036249 -0.903423  0.427216
			 0.583814 -0.319545 -0.746359
			 0.582736 -0.528197 -0.617598
			 0.661057 -0.369055 -0.653301
			 0.522229 -0.694701 -0.494639
			 0.448515 -0.880383  0.154143
			-0.084891  0.927756  0.363403
			 0.190645  0.748301  0.635374
			-0.249290  0.840860  0.480426
			 0.030304  0.999091  0.029973
			 0.386761  0.894489  0.224291
			 0.607505  0.793032  0.045144
			 0.650390  0.754039 -0.091745
			 0.658597  0.749697  0.064838
			 0.365924  0.919183  0.145608
			 0.454692  0.878790  0.144853
			 0.356155  0.924686  0.134575
			 0.346124  0.928330  0.135650
			 0.284277  0.952805  0.106536
			 0.011546  0.997065  0.075685
			-0.154182  0.984106  0.088112
			 0.106282  0.993292  0.045552
			 0.004669  0.987938 -0.154778
			 0.156406  0.945773 -0.284694
			 0.004161  0.999881 -0.014822
			 0.149492  0.987966  0.039695
			-0.080568  0.994734 -0.063355
			 0.101570  0.972850 -0.207958
			-0.190208  0.981727  0.005677
			-0.129650  0.810860  0.570699
			 0.055711  0.824170  0.563596
			 0.245508  0.758403  0.603781
			 0.386165  0.854975  0.346258
			 0.331313  0.810548  0.482952
			-0.071105  0.860789  0.503971
			 0.405057  0.778591 -0.479295
			 0.508600  0.777934 -0.368977
			 0.582292  0.745938 -0.323285
			 0.188589  0.960180  0.206128
			 0.474644 -0.851922 -0.221227
			 0.437666 -0.893813  0.097708
			 0.448055 -0.890963  0.073699
			 0.169357 -0.116812 -0.978608
			-0.067060 -0.022346 -0.997499
			 0.719332 -0.232215 -0.654705
			 0.707254 -0.417874 -0.570240
			 0.748487 -0.376975 -0.545580
			 0.325020 -0.023306 -0.945420
			 0.714020 -0.001890 -0.700122
			 0.585634  0.069897 -0.807556
			 0.707383 -0.001094 -0.706830
			 0.702017 -0.116367 -0.702589
			 0.636345  0.011468 -0.771320
			 0.716352  0.000329 -0.697739
			 0.655213 -0.039199 -0.754426
			 0.642231  0.040597 -0.765436
			-0.934518  0.174681 -0.310102
			-0.772942  0.094656 -0.627376
			-0.509383  0.097438 -0.855006
			-0.980570  0.146266 -0.130724
			-0.997313  0.046567 -0.056551
			-0.983397 -0.122314 -0.134053
			-0.954886  0.186232  0.231324
			-0.950640  0.152947  0.269982
			-0.977870  0.153948  0.141671
			-0.995002 -0.048901  0.087060
			-0.830100 -0.037048  0.556383
			-0.932514  0.131381  0.336388
			-0.851313  0.088114  0.517206
			-0.773791 -0.124652  0.621054
			-0.780197  0.015309  0.625347
			-0.801365 -0.294341  0.520748
			-0.741300 -0.320031  0.589962
			-0.650863 -0.379456  0.657564
			-0.556231 -0.430407  0.710884
			-0.401667 -0.660752  0.634090
			-0.427722 -0.564728  0.705788
			-0.152823 -0.644125  0.749499
			 0.142103 -0.739147  0.658384
			 0.634229 -0.506703 -0.583957
			 0.644370 -0.581170 -0.497019
			 0.622612 -0.701046 -0.347690
			 0.381692 -0.868700  0.315710
			-0.257570  0.921097  0.291955
			-0.235200  0.965985  0.107490
			-0.014317  0.998516 -0.052536
			 0.314062  0.744850 -0.588697
			 0.474448  0.831535  0.288874
			 0.541651  0.790981  0.284542
			 0.610829  0.787170  0.085152
			 0.747259  0.663076  0.043983
			 0.721376  0.682730  0.116172
			 0.652854  0.753996  0.072602
			 0.488271  0.805316  0.336239
			 0.451716  0.754327  0.476386
			 0.484485  0.710309  0.510622
			 0.640608  0.705133  0.303988
			-0.066727  0.816572  0.573374
			 0.052126  0.793769  0.605982
			-0.013605  0.861461  0.507642
			-0.090690  0.839360  0.535957
			-0.183577  0.848102  0.497014
			-0.059476  0.998170  0.010926
			-0.115942  0.993165  0.013461
			 0.035225  0.995762 -0.084958
			 0.217591  0.912235 -0.347104
			 0.016238  0.984844 -0.172682
			 0.136449  0.928227 -0.346088
			 0.180038  0.895828 -0.406299
			 0.056679  0.944029 -0.324957
			 0.015011  0.999319  0.033720
			-0.222139  0.952819 -0.206858
			-0.319682  0.947490 -0.008122
			-0.109491  0.954656 -0.276845
			-0.094979  0.983744 -0.152405
			-0.065892  0.982417 -0.174686
			-0.236145  0.969009  0.072505
			-0.339959  0.836370  0.430015
			-0.475300  0.822631  0.312038
			-0.251317  0.966583  0.050567
			-0.457505  0.823157  0.336306
			-0.445613  0.843033  0.301205
			 0.293436  0.919776  0.260591
			 0.330017  0.900257  0.283948
			 0.353265  0.831921  0.427914
			 0.531386  0.725966  0.436579
			 0.491700  0.737750  0.462554
			 0.537827  0.775929  0.329662
			 0.487789  0.739842  0.463352
			 0.615555  0.719445  0.321699
			 0.421041  0.810375  0.407452
			 0.492035  0.795017  0.354754
			 0.633287  0.733850  0.245788
			 0.319561  0.933911  0.160287
			 0.523502  0.390128 -0.757460
			 0.620990  0.368918 -0.691572
			 0.701818  0.342657 -0.624529
			 0.724691  0.322404 -0.608998
			 0.619260  0.715777 -0.322772
			 0.704705 -0.690829 -0.161698
			 0.631652 -0.774252  0.039350
			 0.559877 -0.804823  0.196972
			 0.139945  0.093299 -0.985754
			-0.168972  0.165525 -0.971622
			 0.857442 -0.195107 -0.476157
			 0.834497 -0.306453 -0.457932
			 0.737027 -0.544691 -0.400129
			 0.791673 -0.500652 -0.350146
			 0.866475 -0.423356 -0.264556
			 0.364310  0.137110 -0.921129
			 0.680073  0.008946 -0.733090
			 0.329118  0.208667 -0.920945
			 0.496934  0.078738 -0.864209
			 0.674260  0.022870 -0.738140
			 0.776795 -0.031868 -0.628947
			 0.585132 -0.128272 -0.800729
			 0.678942 -0.020236 -0.733913
			 0.568786 -0.093529 -0.817150
			-0.967025  0.226939  0.115587
			-0.861615  0.210757 -0.461737
			-0.957168  0.283466 -0.058965
			-0.707889  0.278254 -0.649206
			-0.433654  0.340313 -0.834345
			-0.990080  0.049208  0.131609
			-0.928528  0.117657  0.352125
			-0.888395  0.066592  0.454224
			-0.631228 -0.029606  0.775032
			-0.665430 -0.214998  0.714828
			-0.642210 -0.023937  0.766155
			-0.889760  0.061620  0.452250
			-0.734268 -0.001566  0.678858
			-0.562918 -0.246359  0.788942
			-0.419889 -0.325283  0.847281
			-0.177245 -0.464774  0.867508
			 0.088687 -0.534899  0.840248
			-0.158071 -0.342797  0.926015
			 0.358562 -0.729102  0.582961
			 0.002163  0.961357 -0.275298
			 0.361059  0.645278 -0.673241
			 0.214153  0.781512 -0.585984
			 0.483082  0.389294 -0.784272
			 0.429379  0.751770  0.500476
			 0.390347  0.750441  0.533355
			 0.531195  0.740875  0.411018
			 0.561061  0.801898  0.205351
			 0.522263  0.527174  0.670320
			 0.580051  0.701418  0.414191
			 0.607859  0.745186  0.274236
			 0.644493  0.661568  0.383350
			 0.521846  0.658580  0.542171
			 0.054654  0.689074  0.722627
			 0.068765  0.625060  0.777542
			 0.143057  0.544917  0.826196
			 0.423488  0.599236  0.679393
			-0.271052  0.670980  0.690157
			-0.209117  0.624056  0.752877
			-0.329304  0.694410  0.639807
			-0.428545  0.698889  0.572628
			-0.348764  0.933175 -0.086875
			-0.257139  0.950551 -0.174159
			-0.466471  0.881681 -0.071011
			-0.357296  0.933945  0.009298
			-0.242101  0.969786 -0.030035
			-0.437471  0.898401 -0.038656
			-0.117340  0.942488 -0.312966
			 0.205914  0.604517 -0.769519
			-0.025477  0.770697 -0.636692
			 0.373266  0.684844 -0.625828
			 0.491179  0.703546 -0.513583
			 0.333521  0.757933 -0.560626
			 0.183821  0.803418 -0.566330
			 0.385992  0.584753 -0.713495
			 0.449698  0.546397 -0.706556
			-0.640860  0.765983 -0.050685
			-0.459402  0.883781 -0.088776
			-0.591360  0.787202  0.174946
			-0.486311  0.866697  0.111077
			 0.946840  0.321128  0.019248
			 0.415937  0.878380  0.235468
			-0.513711  0.853767  0.084752
			-0.501828  0.718078  0.482217
			-0.620617  0.712689  0.326971
			-0.691602  0.550105  0.468051
			-0.600352  0.576479  0.554300
			 0.626972  0.716641 -0.305502
			 0.585961  0.787125 -0.192570