<?xml version="1.0"?>
<VTKFile type="PolyData" version="0.1" byte_order="LittleEndian" compressor="vtkZLibDataCompressor">
	<PolyData>
		<Piece NumberOfPoints="2542" NumberOfVerts="0" NumberOfLines="0" NumberOfStrips="0" NumberOfPolys="5080">
		<PointData Normals="Normals">
		<DataArray type="Float32" Name="Normals" NumberOfComponents="3" format="ascii">
			 0.819765  0.469785  0.327548
			 0.797085  0.425065  0.428924
			 0.679080  0.529696  0.508205
			 0.700123  0.612819  0.366443
			 0.815732  0.464381  0.344863
			 0.720543  0.564207  0.403098
			 0.848034  0.485010  0.213549
			 0.703450  0.585979  0.402227
			 0.527474  0.670945  0.521156
			 0.513615  0.564768  0.645939
			 0.674760  0.543111  0.499729
			 0.678675  0.610353  0.408497
			 0.348397  0.540495  0.765822
			 0.513435  0.539365  0.667435
			 0.621086  0.477236  0.621689
			 0.769534  0.572833  0.282276
			 0.627525  0.633042  0.453287
			 0.729598  0.545601  0.412318
			 0.456607  0.678651  0.575277
			 0.525479  0.652338  0.546194
			 0.571609  0.606354  0.552810
			 0.732898  0.574963  0.363701
			 0.552621  0.686283  0.472892
			 0.340933  0.688740  0.639845
			 0.758135  0.587332  0.283323
			 0.824392  0.441933  0.353656
			 0.632200  0.684922  0.362223
			 0.227222  0.635368  0.738023
			 0.131733  0.693968  0.707852
			 0.038524  0.561230  0.826763
			 0.391977  0.611470  0.687357
			 0.427542  0.449943  0.784066
			 0.241296  0.511447  0.824741
			-0.011094  0.496763  0.867815
			 0.632248  0.310287  0.709918
			 0.424985  0.283894  0.859530
			 0.587297  0.631583  0.506147
			 0.745601  0.574514  0.337658
			 0.292519  0.641647  0.709029
			 0.711635  0.448734  0.540568
			 0.267767  0.625809  0.732574
			 0.510791  0.634189  0.580428
			 0.504440  0.708697  0.493244
			 0.313012  0.756533  0.574179
			 0.222142  0.678970  0.699752
			 0.684831  0.549180  0.478966
			 0.718515  0.578695  0.385809
			 0.576937  0.773839  0.261374
			 0.469877  0.810013  0.350847
			 0.438677  0.590813  0.677128
			 0.555219  0.535498  0.636375
			 0.214638  0.755580  0.618893
			-0.000927  0.613810  0.789453
			-0.043385  0.699105  0.713702
			 0.107506  0.786882  0.607667
			-0.240086  0.500341  0.831876
			-0.250785  0.499856  0.829006
			-0.287392  0.575878  0.765356
			-0.002479  0.626244  0.779624
			 0.222065  0.333769  0.916125
			 0.126885  0.477681  0.869322
			-0.035049  0.304982  0.951713
			-0.308478  0.339702  0.888507
			 0.554496  0.290945  0.779670
			 0.400842  0.173793  0.899512
			 0.073072  0.206337  0.975749
			 0.164330  0.640504  0.750167
			 0.351100  0.744606  0.567706
			 0.550300  0.659432  0.512171
			 0.611413  0.568827  0.550100
			 0.543316  0.477099  0.690785
			 0.307724  0.660575  0.684796
			 0.183321  0.732886  0.655188
			 0.254379  0.854899  0.452150
			 0.572603  0.548553  0.609274
			 0.411571  0.675370  0.611951
			 0.610470  0.777912  0.148930
			 0.563323  0.753018  0.340045
			 0.450262  0.682754  0.575423
			 0.364127  0.876413  0.315137
			 0.386309  0.904564  0.180361
			 0.187780  0.703801  0.685129
			 0.067291  0.717425  0.693379
			-0.197711  0.649388  0.734307
			-0.101436  0.695042  0.711777
			 0.090039  0.788252  0.608730
			-0.109277  0.808774  0.577879
			-0.253585  0.696425  0.671333
			-0.442481  0.448503  0.776566
			-0.568730  0.575367  0.587792
			-0.348032  0.652875  0.672776
			-0.061655  0.741409  0.668215
			-0.476985  0.539718  0.693678
			-0.491151  0.332949  0.804932
			-0.285612  0.305640  0.908301
			 0.391144  0.280908  0.876411
			 0.273991  0.166390  0.947229
			-0.198648  0.259237  0.945164
			 0.140156  0.128087  0.981810
			 0.175539  0.098527  0.979530
			 0.055983  0.770993  0.634378
			 0.416261  0.651882  0.633858
			 0.291660  0.437613  0.850547
			 0.023602  0.884263  0.466392
			 0.084657  0.950577  0.298724
			 0.333891  0.679423  0.653377
			 0.476547  0.878526  0.033102
			 0.395846  0.902032 -0.172172
			 0.433822  0.846282  0.309201
			 0.398786  0.801214  0.446124
			 0.242410  0.758923  0.604378
			 0.154431  0.872131  0.464261
			 0.228205  0.967700  0.107144
			 0.359571  0.907560 -0.216897
			 0.148308  0.867554  0.474716
			-0.011265  0.854920  0.518638
			 0.279395  0.831560  0.480048
			-0.115914  0.832548  0.541690
			-0.108208  0.820069  0.561942
			-0.093097  0.833159  0.545142
			 0.001686  0.799656  0.600456
			-0.340527  0.761282  0.551807
			-0.002411  0.580040  0.814584
			-0.342657  0.619397  0.706353
			-0.607923  0.443307  0.658717
			-0.584198  0.410542  0.700119
			-0.523201  0.680139  0.513490
			-0.707171  0.623336  0.333708
			-0.758509  0.473329  0.447910
			-0.249327  0.783710  0.568889
			-0.640336  0.452638  0.620555
			-0.391313  0.290195  0.873305
			-0.534957  0.340249  0.773338
			-0.467466  0.322752  0.822986
			 0.337166  0.167465  0.926431
			 0.222208  0.195257  0.955248
			 0.134987  0.262196  0.955527
			 0.107388  0.162992  0.980766
			-0.245801  0.220133  0.943993
			-0.385098  0.286240  0.877363
			 0.089372  0.173093  0.980842
			 0.149720  0.147391  0.977681
			 0.401089  0.080273  0.912515
			-0.013602  0.694839  0.719037
			 0.172261  0.687617  0.705343
			 0.091274  0.473756  0.875914
			-0.116094  0.919279  0.376096
			-0.064955  0.955959  0.286221
			-0.213466  0.936463  0.278334
			-0.294489  0.886103  0.357909
			 0.221800  0.975028 -0.011153
			 0.258136  0.932994 -0.250775
			 0.279313  0.846004 -0.454161
			 0.185281  0.935150  0.301937
			 0.356995  0.898556  0.255248
			 0.388033  0.806882  0.445390
			 0.156493  0.816449  0.555807
			-0.225955  0.823673  0.520104
			-0.348483  0.917315  0.192595
			-0.055168  0.995112  0.081901
			 0.195224  0.980740  0.005981
			-0.051517  0.988332  0.143339
			 0.412382  0.711467 -0.568995
			 0.203662  0.950653 -0.234053
			 0.016275  0.999866  0.001883
			 0.043470  0.897422  0.439027
			 0.222979  0.934468  0.277578
			 0.110790  0.952712  0.282958
			-0.053308  0.868950  0.492021
			 0.066590  0.937230  0.342294
			 0.057992  0.929534  0.364147
			-0.006925  0.861981  0.506894
			 0.132762  0.756617  0.640238
			-0.021232  0.773276  0.633714
			 0.082437  0.789929  0.607632
			-0.303622  0.736912  0.603965
			 0.224989  0.763936  0.604798
			 0.111536  0.877522  0.466384
			 0.183336  0.702568  0.687594
			 0.812628  0.250243  0.526320
			-0.028392  0.410555  0.911394
			 0.469586  0.418194  0.777562
			-0.307882  0.543693  0.780773
			-0.711017  0.452038  0.538624
			-0.497369  0.820788  0.280946
			-0.783426  0.590234  0.194596
			-0.597691  0.785081  0.162521
			-0.814838  0.502885  0.288348
			-0.741726  0.577461  0.341148
			-0.715940  0.467814  0.518248
			-0.712308  0.339491  0.614299
			-0.595756  0.292732  0.747919
			-0.525905  0.270587  0.806354
			 0.285296  0.228989  0.930683
			 0.188393  0.199486  0.961620
			 0.256811  0.224661  0.939987
			 0.421644  0.154651  0.893476
			 0.276335  0.181366  0.943793
			 0.219211  0.175991  0.959674
			 0.096338  0.332759  0.938078
			 0.236573  0.154412  0.959265
			 0.074521  0.196453  0.977677
			-0.515323  0.188756  0.835951
			-0.329195  0.223386  0.917458
			-0.338459  0.926979  0.161727
			 0.029334  0.951311 -0.306833
			 0.052952  0.828166 -0.557976
			 0.390647  0.919365 -0.046507
			 0.407966  0.908240  0.093077
			 0.291204  0.934400  0.205177
			 0.238798  0.968568  0.069658
			 0.334075  0.894730  0.296398
			 0.243363  0.901276  0.358436
			 0.323493  0.769807  0.550226
			 0.137477  0.854033  0.501724
			-0.085359  0.779858  0.620109
			-0.541324  0.721284  0.432108
			-0.454076  0.707073  0.542090
			-0.607607  0.723714  0.327187
			-0.385992  0.913703 -0.127111
			-0.073152  0.978897 -0.190811
			 0.475668  0.586980 -0.655129
			 0.427393  0.182058 -0.885545
			 0.362626  0.786648 -0.499687
			-0.049985  0.982785 -0.177861
			-0.175874  0.984345  0.011527
			 0.292434  0.956202 -0.012696
			 0.193773  0.980668 -0.027255
			 0.187459  0.981661  0.034656
			 0.118751  0.941042  0.316761
			 0.218927  0.962800  0.158390
			 0.286979  0.887779  0.359848
			 0.403904  0.630801  0.662535
			 0.179660  0.633782  0.752358
			 0.384549  0.586905  0.712506
			 0.343646  0.613124  0.711327
			 0.397371  0.584524  0.707409
			 0.070254  0.686808  0.723435
			 0.058901  0.607023  0.792499
			-0.169322  0.639981  0.749503
			 0.494943  0.619901  0.608895
			 0.421555  0.728819  0.539551
			 0.944070  0.135585  0.300581
			-0.144475  0.347552  0.926463
			 0.162845  0.321968  0.932640
			-0.111126  0.378263  0.919004
			-0.835146  0.535048  0.127495
			-0.657678  0.752669  0.030804
			-0.749021  0.662512 -0.006696
			-0.834731  0.550211  0.022171
			-0.749470  0.545400  0.375279
			-0.815321  0.539096  0.211251
			-0.785268  0.618495  0.028594
			-0.848913  0.415146  0.327108
			-0.852732  0.333199  0.402278
			-0.790787  0.335112  0.512208
			-0.759309  0.261793  0.595746
			-0.859386  0.249824  0.446144
			-0.875792  0.268323  0.401237
			-0.710556  0.196087  0.675766
			-0.660224  0.156482  0.734586
			-0.585150  0.199413  0.786025
			 0.379965  0.136662  0.914850
			 0.211096  0.217205  0.953027
			 0.245117  0.165122  0.955329
			 0.074986  0.212745  0.974226
			 0.091358  0.095508  0.991228
			 0.053652  0.144117  0.988105
			 0.329339  0.178681  0.927151
			 0.098347  0.237109  0.966492
			 0.145398  0.178005  0.973228
			 0.374117  0.133367  0.917741
			 0.013447  0.208596  0.977909
			-0.122369  0.234281  0.964437
			-0.574471  0.178480  0.798829
			-0.685756  0.083897  0.722980
			-0.605296  0.134111  0.784622
			-0.501276  0.219632  0.836950
			-0.245053  0.246509  0.937647
			-0.462289  0.886648  0.012024
			 0.355640  0.751577 -0.555565
			-0.202101  0.446538 -0.871641
			 0.439538  0.897659  0.031850
			 0.469162  0.875110 -0.118615
			 0.428985  0.820146 -0.378593
			 0.314098  0.930624 -0.187834
			 0.179348  0.982308  0.053896
			 0.001219  0.986186  0.165639
			 0.040635  0.936070  0.349459
			-0.122494  0.949266  0.289637
			-0.007953  0.932524  0.361021
			-0.206842  0.888545  0.409517
			-0.397171  0.734774  0.549875
			-0.543192  0.576722  0.610193
			-0.306356  0.928232  0.211024
			-0.444838  0.568354  0.692166
			-0.618844  0.771211 -0.149218
			 0.566649  0.720931 -0.398959
			 0.547762  0.330656 -0.768520
			 0.181376  0.844823 -0.503365
			 0.322672  0.664953 -0.673587
			 0.258800  0.423560 -0.868112
			 0.678415 -0.177379 -0.712944
			-0.261904  0.156573 -0.952308
			 0.775438 -0.039936 -0.630159
			-0.375417  0.905356 -0.198473
			 0.235899  0.901461 -0.362933
			 0.233875  0.967683 -0.094299
			 0.210157  0.942365 -0.260352
			 0.218650  0.966447 -0.134806
			 0.421816  0.897857 -0.126191
			 0.351065  0.931496 -0.095230
			 0.245587  0.930521  0.271695
			 0.509800  0.843013  0.171559
			 0.423413  0.905892  0.008983
			 0.654700  0.713762  0.248821
			 0.568110  0.730626  0.378729
			 0.663015  0.478265  0.575911
			 0.630875  0.432269  0.644313
			 0.663061  0.453791  0.595336
			 0.494250  0.451667  0.742774
			 0.337152  0.344511  0.876151
			 0.141812  0.532398  0.834531
			 0.558355  0.345070  0.754431
			 0.453714  0.351267  0.818997
			 0.455158  0.468332  0.757296
			 0.563998  0.288308  0.773812
			 0.082408  0.573136  0.815306
			 0.132957  0.359127  0.923770
			 0.735358  0.527745  0.425128
			 0.828588  0.318971  0.460109
			 0.084740  0.147364  0.985445
			-0.730418  0.667064 -0.146676
			-0.653949  0.741850 -0.148359
			-0.865519  0.492532 -0.091047
			-0.672538  0.731904 -0.109586
			-0.857421  0.490256 -0.156454
			-0.826370  0.535355 -0.174664
			-0.905162  0.410667  0.109697
			-0.846431  0.530108 -0.050407
			-0.945343  0.271172  0.181085
			-0.917617  0.108513  0.382367
			-0.948669  0.136608  0.285247
			-0.858622  0.023166  0.512085
			 0.175727  0.107113  0.978594
			 0.287637  0.006021  0.957721
			 0.248642  0.135818  0.959026
			 0.360878  0.030298  0.932121
			 0.190150  0.149502  0.970305
			 0.289821 -0.093392  0.952513
			 0.317454 -0.083046  0.944630
			 0.353818 -0.051430  0.933899
			 0.251252  0.012225  0.967845
			 0.234632  0.112584  0.965543
			 0.267913 -0.031272  0.962935
			 0.433991  0.039514  0.900050
			 0.436590 -0.031577  0.899106
			-0.063576  0.234547  0.970024
			 0.085546  0.202236  0.975593
			 0.120762  0.191302  0.974074
			-0.685229  0.144383  0.713873
			-0.734503  0.117031  0.668438
			-0.692091  0.214284  0.689270
			-0.847287 -0.045633  0.529172
			-0.698229  0.067735  0.712663
			-0.562265  0.238400  0.791848
			 0.031548  0.237763  0.970811
			-0.410439  0.285756  0.865958
			 0.118699  0.252977  0.960163
			 0.131132  0.234173  0.963311
			-0.080561  0.265835  0.960647
			 0.979353  0.202156  0.000226
			 0.971699  0.044910 -0.231913
			 0.167339  0.981907 -0.088636
			 0.451522  0.843481 -0.290978
			 0.192365  0.952239 -0.237144
			 0.304950  0.806935 -0.505828
			 0.336875  0.754660 -0.563031
			 0.339796  0.678094 -0.651711
			 0.321961  0.842866 -0.431183
			 0.390165  0.743212 -0.543514
			 0.405095  0.740734 -0.535921
			 0.277449  0.841840 -0.462955
			-0.348444  0.937175 -0.017020
			-0.481239  0.858372  0.177783
			-0.387849  0.852302  0.350935
			-0.395466  0.852111  0.342802
			-0.521975  0.742095  0.420520
			-0.543668  0.688927  0.479379
			-0.376714  0.634937  0.674494
			-0.127034  0.821518  0.555851
			-0.660377  0.748812  0.056416
			-0.211201  0.845243  0.490876
			-0.230724  0.681717  0.694282
			-0.698044  0.706554  0.116260
			-0.041705  0.736361 -0.675303
			 0.370239  0.554485 -0.745299
			 0.875871  0.151541 -0.458132
			 0.802256  0.330431 -0.497192
			-0.142586  0.841027 -0.521864
			-0.381592  0.923238  0.044933
			 0.708566  0.678015 -0.195524
			 0.607696  0.791778 -0.061597
			-0.505222  0.772216 -0.385270
			 0.167253  0.888456 -0.427401
			 0.135040  0.737396 -0.661824
			 0.267348  0.939331 -0.214899
			 0.398722  0.878568 -0.262943
			 0.872580  0.478960 -0.095921
			 0.876094  0.468582 -0.113532
			 0.481572  0.875349 -0.043049
			 0.233124  0.950062 -0.207450
			 0.348729  0.911965 -0.216121
			 0.503525  0.858852 -0.093999
			 0.782779  0.606292 -0.140236
			 0.685411  0.726698  0.046065
			 0.790839  0.601619  0.112372
			 0.706113  0.707803  0.020470
			 0.847439  0.456101  0.271697
			 0.852818  0.494322  0.168369
			 0.818572  0.305938  0.486149
			 0.838984  0.264530  0.475531
			 0.808331  0.115329  0.577322
			 0.528464  0.188396  0.827788
			 0.382897  0.145467  0.912266
			 0.533743  0.051966  0.844049
			 0.558832  0.079374  0.825474
			 0.687166 -0.005055  0.726482
			 0.266593  0.062073  0.961808
			 0.867268  0.332162  0.370829
			 0.919062  0.257546  0.298322
			 0.951310  0.000525  0.308234
			 0.935376  0.082243  0.343960
			 0.942408  0.109872  0.315903
			-0.754660  0.593296 -0.280158
			-0.673419  0.690898 -0.262998
			-0.616631  0.704923 -0.350499
			-0.793774  0.562440 -0.231484
			-0.759868  0.624128 -0.181834
			-0.860012  0.475070 -0.186246
			-0.857297  0.483802 -0.176006
			-0.834099  0.498853 -0.235422
			-0.857114  0.497698 -0.132861
			-0.826534  0.476083 -0.300310
			-0.922450  0.385105 -0.027917
			-0.974434  0.201060  0.100265
			-0.943027  0.322914 -0.080166
			-0.981830  0.057481  0.180849
			-0.981866 -0.063796  0.178519
			-0.959821 -0.089480  0.265964
			-0.974345 -0.060019  0.216907
			 0.319887 -0.063260  0.945341
			 0.262900  0.035555  0.964168
			 0.425978 -0.042158  0.903751
			 0.418921 -0.144347  0.896476
			 0.395887 -0.132160  0.908740
			 0.433867  0.096724  0.895770
			 0.409675 -0.202524  0.889467
			 0.569363 -0.183787  0.801279
			 0.505005 -0.060409  0.861000
			 0.444128 -0.163412  0.880935
			 0.416666 -0.165927  0.893788
			 0.470046 -0.083098  0.878721
			 0.404815 -0.154798  0.901200
			 0.443211 -0.165325  0.881040
			 0.722292 -0.300834  0.622730
			 0.780865 -0.211551  0.587789
			-0.837563  0.073317  0.541400
			-0.815831  0.057603  0.575415
			-0.906124  0.061443  0.418526
			-0.827776  0.171988  0.534048
			-0.797638  0.207572  0.566293
			-0.637604  0.235565  0.733464
			-0.943663 -0.018254  0.330404
			-0.627051  0.266909  0.731824
			 0.436044  0.165377  0.884599
			-0.379865  0.316507  0.869210
			-0.534994  0.307154  0.787044
			 0.367484  0.241551  0.898114
			 0.139947  0.245750  0.959178
			 0.480655  0.159009  0.862373
			-0.231969  0.311173  0.921608
			-0.013676  0.251073  0.967872
			-0.153142  0.307383  0.939182
			 0.118746  0.248015  0.961451
			 0.247346  0.229397  0.941380
			 0.753936  0.608503  0.247596
			-0.244036  0.943793 -0.222937
			 0.191361  0.910357 -0.366920
			-0.196624  0.923019 -0.330720
			-0.072519  0.880804 -0.467895
			 0.031991  0.789911 -0.612386
			 0.212720  0.723864 -0.656331
			-0.032081  0.725429 -0.687549
			 0.118827  0.649309 -0.751184
			 0.349846  0.673194 -0.651473
			 0.006414  0.498430 -0.866906
			 0.140664  0.599307 -0.788064
			 0.075416  0.558597 -0.826003
			 0.283072  0.741615 -0.608175
			 0.434845  0.686261 -0.583057
			-0.615763  0.764270 -0.191647
			-0.723011  0.686626 -0.076153
			-0.610648  0.777082  0.152488
			-0.529326  0.803765  0.271616
			-0.547674  0.750059  0.370761
			-0.413633  0.815155  0.405500
			-0.388980  0.786593  0.479548
			-0.295940  0.784736  0.544619
			-0.334491  0.676808  0.655780
			-0.520699  0.678636  0.518002
			-0.730661  0.670043  0.131057
			-0.394510  0.757933  0.519518
			-0.430205  0.785281 -0.445261
			-0.319479  0.775497 -0.544553
			 0.412120  0.911122 -0.003777
			 0.063984  0.914730 -0.398967
			 0.927127  0.304942 -0.217820
			 0.800052  0.596724  0.061945
			-0.270539  0.897189  0.349085
			-0.112362  0.814410  0.569307
			 0.613685  0.688872  0.385806
			 0.222740  0.932167 -0.285396
			 0.289538  0.874809 -0.388428
			 0.130902  0.809229 -0.572724
			 0.257326  0.667711 -0.698531
			 0.049715  0.642789 -0.764428
			 0.184620  0.493661 -0.849832
			 0.212011  0.691400 -0.690664
			 0.122942  0.527443 -0.840648
			 0.189455  0.499976 -0.845063
			 0.750755  0.660441 -0.013566
			 0.466807  0.831223 -0.301927
			 0.628194  0.746774 -0.218406
			 0.624662  0.760759 -0.176190
			 0.802394  0.588333 -0.100145
			 0.868037  0.495386  0.033241
			 0.925049  0.376852  0.047609
			 0.907824  0.417753  0.036597
			 0.968610  0.209379  0.133999
			 0.960046  0.180956  0.213462
			 0.954213 -0.004252  0.299097
			 0.905282  0.070355  0.418944
			 0.794486 -0.115354  0.596227
			 0.872016 -0.134768  0.470558
			 0.567923 -0.102806  0.816636
			 0.548914 -0.079963  0.832045
			 0.546756 -0.123676  0.828107
			 0.591023 -0.101814  0.800203
			 0.986636 -0.030988  0.159969
			 0.973648 -0.091307  0.208981
			 0.970762 -0.090012  0.222530
			-0.617518  0.698119 -0.362355
			-0.428906  0.769253 -0.473593
			-0.623496  0.694066 -0.359897
			-0.594105  0.749684 -0.291569
			-0.553556  0.788080 -0.269269
			-0.736394  0.621795 -0.266635
			-0.832646  0.399207 -0.383841
			-0.805722  0.429504 -0.407845
			-0.892099  0.408579 -0.192932
			-0.883941  0.317952 -0.342863
			-0.914781  0.322237 -0.243597
			-0.805163  0.369147 -0.464158
			-0.988272  0.144752 -0.048628
			-0.998577 -0.044591  0.029242
			-0.975619  0.103913 -0.193311
			-0.982019 -0.183376  0.044855
			-0.972468 -0.195682  0.126552
			-0.980918 -0.138985  0.135951
			 0.448423 -0.064085  0.891521
			 0.416485 -0.127107  0.900213
			 0.514627  0.048843  0.856022
			 0.545378 -0.235751  0.804353
			 0.514930 -0.165548  0.841095
			 0.529148  0.131653  0.838254
			 0.680827  0.056722  0.730244
			 0.830195 -0.066476  0.553495
			 0.500487  0.056073  0.863926
			 0.557847  0.280642  0.781055
			 0.438918 -0.136111  0.888158
			 0.518888 -0.227907  0.823901
			 0.579111 -0.342024  0.740034
			 0.890566 -0.452760  0.043596
			 0.689582 -0.720349  0.074662
			 0.941637 -0.334522 -0.037621
			-0.997734 -0.046071  0.049024
			-0.929454  0.043995  0.366306
			-0.987814  0.045661  0.148793
			-0.916035  0.161273  0.367247
			-0.761484  0.228709  0.606493
			-0.921696  0.174265  0.346567
			-0.583718  0.224461  0.780314
			-0.621227  0.220673  0.751918
			-0.736372  0.252134  0.627841
			-0.678041  0.299784  0.671111
			-0.630779  0.321942  0.706025
			-0.443624  0.328762  0.833735
			 0.580363  0.216062  0.785172
			 0.645603  0.159000  0.746937
			 0.509179  0.198261  0.837514
			 0.594411  0.123853  0.794567
			 0.678791  0.083662  0.729551
			-0.061884  0.271325  0.960496
			-0.000621  0.284054  0.958808
			-0.386071  0.323987  0.863702
			-0.252713  0.299903  0.919888
			 0.526079  0.196440  0.827437
			 0.487336  0.163407  0.857789
			-0.567724  0.768530 -0.295044
			-0.489455  0.767812 -0.413398
			-0.213567  0.807509 -0.549835
			-0.353809  0.684725 -0.637158
			-0.106850  0.624889 -0.773367
			-0.328391  0.584138 -0.742255
			-0.183062  0.499404 -0.846808
			 0.187758  0.559789 -0.807083
			 0.339611  0.605093 -0.720088
			-0.140218  0.439445 -0.887258
			-0.296890  0.322720 -0.898726
			-0.137713  0.403487 -0.904562
			 0.309616  0.667517 -0.677170
			 0.463636  0.624443 -0.628580
			 0.450481  0.582615 -0.676481
			-0.766430  0.622074 -0.160028
			-0.778508  0.578496 -0.243450
			-0.709321  0.626416 -0.323215
			-0.728436  0.663042 -0.172504
			-0.497582  0.824509  0.269439
			-0.650138  0.759699  0.013321
			-0.626182  0.766895  0.140596
			-0.645120  0.739769  0.191214
			-0.502777  0.777155  0.378477
			-0.485954  0.727968  0.483643
			-0.196189  0.694119  0.692610
			-0.455960  0.732736  0.505172
			 0.067134  0.660222  0.748064
			-0.213259  0.959070  0.186294
			-0.282730  0.894596 -0.346067
			-0.268994  0.960990 -0.064344
			 0.540242  0.779903 -0.316055
			 0.376456  0.777552 -0.503680
			 0.622113  0.668541 -0.407466
			 0.346963  0.725096 -0.594855
			 0.227167  0.590185 -0.774646
			 0.508144  0.507798 -0.695651
			 0.644462  0.492584 -0.584833
			 0.162382  0.476549 -0.864021
			 0.315186  0.211337 -0.925200
			 0.159031  0.452393 -0.877525
			 0.292509  0.297386 -0.908845
			 0.253887  0.308063 -0.916863
			 0.242343  0.318526 -0.916412
			 0.261628  0.516579 -0.815290
			 0.071101  0.325057 -0.943018
			 0.068393  0.209425 -0.975430
			 0.039323  0.427236 -0.903285
			 0.002035  0.319348 -0.947635
			 0.185479  0.297911 -0.936401
			 0.020073  0.201878 -0.979205
			 0.924001  0.381703  0.022895
			 0.749977  0.611111 -0.253136
			 0.813068  0.522600 -0.256534
			 0.848162  0.501137 -0.171706
			 0.953928  0.292174 -0.068227
			 0.982377  0.186466  0.012870
			 0.993693  0.108375 -0.028791
			 0.998629  0.022574  0.047232
			 0.917093 -0.159213  0.365501
			 0.587209 -0.188898  0.787085
			 0.852181 -0.230452  0.469766
			 0.711768 -0.233156  0.662590
			 0.509317 -0.251404  0.823039
			 0.996732 -0.079930  0.011704
			 0.982533 -0.129183  0.133944
			 0.985746 -0.140393  0.092706
			 0.988846 -0.140279  0.050053
			 0.966337 -0.096486  0.238500
			-0.412434  0.886169 -0.211194
			-0.622574  0.776719 -0.095441
			-0.554982  0.760479 -0.337144
			-0.494873  0.738337 -0.458213
			-0.653271  0.662829 -0.365915
			-0.804318  0.274299 -0.527099
			-0.758196  0.216677 -0.614971
			-0.617064  0.585250 -0.526037
			-0.755829  0.362834 -0.545044
			-0.837243  0.219538 -0.500827
			-0.906435  0.025012 -0.421604
			-0.955422  0.098870 -0.278195
			-0.987015 -0.111761 -0.115373
			-0.966539 -0.250231 -0.056456
			-0.944743 -0.124873 -0.303095
			-0.942908 -0.217563 -0.252173
			-0.977173 -0.208681 -0.039808
			 0.464056 -0.031460  0.885247
			 0.551727  0.024825  0.833655
			 0.588080 -0.274936  0.760639
			 0.622746 -0.312655  0.717240
			 0.652628 -0.262983  0.710575
			 0.704090 -0.208210  0.678900
			 0.634004 -0.113987  0.764883
			 0.686249  0.071929  0.723801
			 0.895141  0.261980  0.360680
			 0.467434  0.304218  0.830034
			 0.715702 -0.057036  0.696073
			 0.661906  0.058278  0.747318
			 0.666244 -0.089931  0.740291
			 0.491244  0.556597  0.669984
			 0.544940 -0.165687  0.821942
			 0.594613 -0.282896  0.752599
			 0.667947 -0.262521  0.696369
			 0.696385 -0.280809  0.660450
			 0.352311 -0.631053  0.691122
			 0.023810 -0.963514  0.266598
			 0.290595 -0.933797  0.208752
			 0.941849 -0.322584  0.094130
			-0.968305 -0.138144 -0.208091
			-0.991978 -0.037933 -0.120583
			-0.963001 -0.121536 -0.240538
			-0.976107  0.128141  0.175486
			-0.997271  0.048618 -0.055555
			-0.878306  0.216089  0.426479
			-0.964699  0.175193  0.196630
			-0.969841  0.103804  0.220531
			-0.869128  0.251674  0.425766
			-0.773238  0.284950  0.566486
			-0.631165  0.326754  0.703465
			-0.847714  0.268625  0.457408
			 0.717796  0.116139  0.686499
			 0.670078  0.089366  0.736892
			 0.702817  0.128200  0.699723
			 0.708562  0.076648  0.701473
			 0.613034  0.117554  0.781262
			 0.308641  0.217820  0.925902
			 0.060884  0.290322  0.954990
			-0.041797  0.248841  0.967642
			-0.590315  0.319620  0.741196
			-0.326307  0.283102  0.901874
			 0.635626  0.135624  0.759991
			 0.618900  0.125308  0.775410
			-0.761803  0.605217 -0.231017
			-0.642790  0.562332 -0.520195
			-0.509762  0.519864 -0.685481
			-0.416324  0.448630 -0.790826
			-0.458701  0.295272 -0.838098
			 0.028855  0.382167 -0.923643
			 0.201081  0.467094 -0.861040
			-0.499181  0.195015 -0.844267
			-0.256134  0.284104 -0.923948
			 0.373561  0.536234 -0.756906
			 0.222669  0.418281 -0.880602
			-0.730474  0.496003 -0.469456
			-0.587050  0.668454 -0.456664
			-0.718863  0.683196 -0.128371
			-0.642567  0.732370  0.225261
			-0.555449  0.696629  0.454075
			-0.589378  0.769129  0.247132
			-0.510153  0.856809 -0.074977
			 0.566182  0.620082 -0.543081
			 0.727455  0.510725 -0.458224
			 0.891001  0.345579 -0.294437
			 0.349020  0.447452 -0.823390
			 0.575406  0.429953 -0.695736
			 0.769071  0.326122 -0.549704
			 0.891698  0.190058 -0.410794
			 0.800639  0.393983 -0.451392
			 0.412707  0.252550 -0.875152
			 0.465175 -0.051870 -0.883698
			 0.398406  0.030393 -0.916706
			 0.424443  0.054871 -0.903791
			 0.222287  0.276591 -0.934925
			 0.160597  0.191055 -0.968353
			 0.310206  0.091384 -0.946267
			 0.253102  0.115210 -0.960555
			 0.242276  0.102771 -0.964749
			 0.146256  0.296346 -0.943816
			 0.024253  0.077471 -0.996700
			 0.005185  0.253847 -0.967230
			-0.041444  0.013327 -0.999052
			-0.077590 -0.035159 -0.996365
			-0.009598  0.043188 -0.999021
			-0.038359  0.131734 -0.990543
			 0.942895  0.288787 -0.165986
			 0.977169  0.122528 -0.173575
			 0.999952  0.002957 -0.009315
			 0.986143 -0.101858 -0.130946
			 0.702973 -0.210740  0.679277
			 0.852252 -0.202865  0.482195
			-0.006929 -0.536312  0.843992
			 0.480943 -0.201880  0.853193
			 0.391288 -0.201310  0.897980
			 0.990993 -0.126911 -0.042728
			 0.992894 -0.099121  0.065849
			 0.994940 -0.043434  0.090599
			 0.985986 -0.150735  0.071488
			 0.964674 -0.198886  0.172769
			 0.921379 -0.283496  0.265877
			-0.499867  0.577522 -0.645446
			-0.706277  0.109992 -0.699338
			-0.764587  0.204996 -0.611051
			-0.682121  0.055511 -0.729129
			-0.704377 -0.147120 -0.694413
			-0.816392 -0.015143 -0.577299
			-0.601022  0.536751 -0.592175
			-0.694652  0.355584 -0.625315
			-0.802510 -0.338148 -0.491563
			-0.913383 -0.341867 -0.221039
			-0.942004 -0.253019 -0.220476
			-0.894530 -0.323346 -0.308647
			-0.827097 -0.440563 -0.349020
			 0.687859  0.046613  0.724346
			 0.674012 -0.070153  0.735382
			 0.751461 -0.336937  0.567257
			 0.711925 -0.336898  0.616168
			 0.702166 -0.283836  0.652994
			 0.802906 -0.296817  0.516954
			 0.728563 -0.230006  0.645208
			 0.747310 -0.164440  0.643807
			 0.778512 -0.112704  0.617428
			 0.662291  0.141731  0.735719
			 0.735631  0.332062  0.590408
			 0.468463  0.750206  0.466619
			 0.255973  0.669778  0.697048
			 0.474399  0.233897  0.848668
			 0.613561 -0.026616  0.789198
			 0.682275 -0.226215  0.695218
			 0.684331 -0.351679  0.638760
			 0.823527 -0.300697  0.481025
			 0.723966 -0.318410  0.611954
			-0.509876 -0.552602  0.659285
			-0.142078 -0.586980  0.797037
			 0.684654 -0.294010  0.666939
			-0.887539 -0.215288 -0.407340
			-0.955600 -0.074704 -0.285041
			-0.923734 -0.188845 -0.333245
			-0.993938  0.102433 -0.039920
			-0.992962  0.069128 -0.096169
			-0.954724  0.015960 -0.297064
			-0.968597  0.188970  0.161585
			-0.914079  0.222524  0.339031
			-0.777156  0.313215  0.545825
			-0.724492  0.331100  0.604553
			-0.951356  0.194782  0.238711
			-0.922398  0.264305  0.281647
			-0.884950  0.282515  0.370201
			 0.718715  0.108163  0.686840
			 0.710860  0.143694  0.688498
			 0.779262  0.078121  0.621810
			 0.734294  0.025771  0.678342
			 0.738694  0.082256  0.669003
			 0.428942  0.224468  0.874999
			 0.161633  0.236847  0.958007
			 0.383784  0.224625  0.895686
			 0.211016  0.228908  0.950302
			-0.190019  0.246314  0.950380
			-0.076798  0.238747  0.968040
			-0.525611  0.290106  0.799732
			-0.761057  0.299871  0.575213
			-0.416476  0.288158  0.862272
			-0.289578  0.257385  0.921899
			 0.656883  0.165942  0.735506
			 0.650479  0.172358  0.739710
			-0.788794  0.494075 -0.365643
			-0.605631  0.466956 -0.644332
			-0.700032  0.343178 -0.626247
			-0.743805  0.366653 -0.558856
			-0.616018  0.305362 -0.726137
			-0.301638  0.100841 -0.948075
			-0.004911  0.285278 -0.958432
			-0.419003  0.173085 -0.891335