<?xml version="1.0"?>
<VTKFile type="PolyData" version="0.1" byte_order="LittleEndian" compressor="vtkZLibDataCompressor">
	<PolyData>
		<Piece NumberOfPoints="806" NumberOfVerts="0" NumberOfLines="0" NumberOfStrips="0" NumberOfPolys="1608">
		<PointData Normals="Normals">
		<DataArray type="Float32" Name="Normals" NumberOfComponents="3" format="ascii">
			-0.922697  0.013462 -0.385292
			-0.884658 -0.012073 -0.466083
			-0.948580  0.036284 -0.314451
			-0.998076  0.043119 -0.044566
			 0.797276 -0.001432 -0.603613
			 0.213379 -0.107393 -0.971049
			-0.964044  0.013567 -0.265398
			-0.775243 -0.043038 -0.630195
			-0.994918  0.099362  0.016316
			-0.996830  0.077511  0.017939
			-0.985781  0.108827 -0.128032
			-0.837621 -0.012093 -0.546118
			-0.877272  0.093793 -0.470740
			-0.995170  0.060757  0.077103
			-0.903320 -0.024379 -0.428275
			-0.995272  0.043932  0.086621
			-0.995352  0.018222 -0.094560
			-0.994437  0.103670  0.018620
			 0.797184 -0.058927 -0.600854
			-0.727781 -0.046504 -0.684231
			-0.698453 -0.017182 -0.715450
			-0.706661 -0.015310 -0.707387
			-0.827692 -0.050235 -0.558929
			-0.977041  0.061085  0.204107
			-0.979356  0.075387  0.187560
			-0.994309  0.099687 -0.037573
			-0.937000  0.119150 -0.328383
			-0.787369  0.066998 -0.612830
			-0.760751  0.107552 -0.640071
			-0.996710  0.029801  0.075370
			-0.995142  0.057789  0.079707
			-0.983220  0.028297  0.180214
			-0.497820 -0.034591 -0.866590
			-0.716454 -0.005797 -0.697610
			-0.924794  0.026049 -0.379574
			-0.962158  0.084610  0.259024
			 0.999823  0.018033  0.005413
			-0.974099  0.211373 -0.080327
			 0.994113  0.088243  0.062875
			-0.991757  0.127441 -0.013266
			-0.932214  0.350923 -0.088492
			-0.484333 -0.047722 -0.873581
			-0.655698 -0.064633 -0.752252
			-0.651859  0.051901 -0.756563
			-0.021766 -0.029773 -0.999320
			-0.393759 -0.019826 -0.919000
			-0.930832  0.025937  0.364526
			-0.941629 -0.002625  0.336642
			-0.948230  0.068784  0.310046
			-0.870703  0.004431  0.491789
			-0.976883  0.064705  0.203746
			-0.933341  0.042458  0.356472
			-0.996672  0.081293 -0.005973
			-0.922872  0.041802  0.382830
			-0.950516  0.029832 -0.309240
			-0.767294  0.037102 -0.640222
			-0.994310  0.081216 -0.068932
			-0.521705 -0.009517 -0.853073
			-0.975301 -0.007904  0.220740
			-0.984889  0.031946  0.170212
			-0.992581  0.091600  0.079955
			-0.963095  0.173197  0.206037
			-0.939464 -0.032615  0.341091
			-0.379658 -0.006651 -0.925103
			-0.197626 -0.048019 -0.979101
			 0.943474 -0.030177 -0.330071
			 0.749340 -0.070664 -0.658405
			-0.562234  0.096391 -0.821341
			-0.861317  0.208755 -0.463200
			-0.987208  0.140789  0.074820
			-0.894646  0.422031 -0.146622
			-0.960828  0.270974  0.058153
			-0.756103  0.555579 -0.345891
			-0.727282  0.648103 -0.225886
			-0.856843  0.510942 -0.068975
			-0.360414 -0.051473 -0.931371
			-0.379840 -0.051798 -0.923601
			-0.150105 -0.024369 -0.988370
			-0.114663 -0.077020 -0.990414
			-0.104008 -0.053207 -0.993152
			-0.884463 -0.027417  0.465804
			-0.732778 -0.069458  0.676914
			-0.813451 -0.057745  0.578759
			-0.693612 -0.019834  0.720075
			-0.845963  0.033574  0.532183
			-0.882124  0.022455  0.470482
			-0.982697  0.089133  0.162364
			-0.994473  0.072235  0.076193
			-0.928028  0.052785  0.368751
			-0.815690  0.032102 -0.577598
			-0.975612  0.053003 -0.213006
			-0.546398  0.013872 -0.837410
			-0.347482 -0.076640 -0.934550
			-0.102546 -0.127150 -0.986568
			-0.909824 -0.062294  0.410292
			-0.950746 -0.025091  0.308955
			-0.884075  0.006794  0.467296
			-0.829145  0.235179  0.507158
			-0.836762  0.533625  0.122777
			-0.911089  0.347642  0.221499
			-0.145754 -0.062945 -0.987316
			-0.144002 -0.035033 -0.988957
			-0.302546  0.051824 -0.951725
			-0.148504 -0.051511 -0.987569
			-0.328336  0.195162 -0.924179
			-0.589438  0.320314 -0.741594
			-0.787471  0.360211 -0.500137
			-0.835313  0.532212  0.137851
			-0.601393  0.729080 -0.326755
			-0.534958  0.498089 -0.682442
			-0.668523  0.738714 -0.085901
			-0.413621  0.844867 -0.339290
			-0.441695  0.888947 -0.121155
			-0.603852  0.788532  0.116533
			-0.502274  0.855131  0.128340
			 0.156914 -0.131170 -0.978863
			-0.064787 -0.003809 -0.997892
			 0.000601  0.012405 -0.999923
			 0.328892 -0.152737 -0.931934
			 0.450836 -0.238442 -0.860170
			 0.321289 -0.159990 -0.933369
			 0.129245 -0.075057 -0.988768
			 0.176785 -0.093500 -0.979798
			-0.694327 -0.143762  0.705154
			-0.644627 -0.074896  0.760820
			-0.563819 -0.122311  0.816792
			-0.821495 -0.098839  0.561585
			-0.806998  0.019585  0.590230
			-0.695545 -0.019285  0.718224
			-0.548819 -0.030636  0.835380
			-0.433331 -0.084033  0.897308
			-0.533516 -0.103251  0.839464
			-0.849226 -0.041349  0.526408
			-0.764708 -0.007956  0.644328
			-0.976704  0.104136  0.187629
			-0.991686  0.120230 -0.045860
			-0.928558  0.072163  0.364106
			-0.519111  0.200313 -0.830902
			-0.897908  0.150362 -0.413706
			-0.197833  0.020070 -0.980030
			 0.057924 -0.137984 -0.988739
			 0.334780 -0.206925 -0.919296
			-0.853772 -0.113653  0.508091
			-0.845694 -0.008685  0.533598
			-0.713447  0.252821  0.653509
			-0.706789  0.494665  0.505723
			-0.797427  0.513279  0.317263
			-0.614180  0.768789  0.178173
			-0.347670  0.934798  0.072648
			-0.669780  0.669490  0.321213
			 0.250036 -0.082116 -0.964748
			 0.160705 -0.114770 -0.980307
			 0.126334 -0.124031 -0.984203
			-0.036454  0.070295 -0.996860
			 0.072739 -0.055797 -0.995789
			-0.072937  0.319482 -0.944781
			-0.256767  0.427197 -0.866934
			-0.542323  0.706534 -0.454638
			-0.387262  0.641749 -0.661956
			-0.326333  0.941486  0.084325
			-0.134527  0.990908  0.002021
			-0.116042  0.738460 -0.664237
			-0.108292  0.982398  0.152206
			-0.080797  0.979411  0.185001
			 0.570425 -0.246160 -0.783595
			 0.555626 -0.228195 -0.799504
			 0.623953 -0.208322 -0.753183
			 0.644669 -0.231831 -0.728461
			 0.646062 -0.222712 -0.730070
			 0.449763 -0.118293 -0.885280
			-0.554017 -0.206297  0.806540
			-0.660614 -0.156956  0.734135
			-0.792499 -0.141006  0.593348
			-0.509913 -0.177764  0.841658
			-0.502288 -0.216043  0.837277
			-0.350751 -0.177448  0.919503
			-0.362055 -0.112343  0.925362
			-0.583875 -0.059224  0.809681
			-0.504856 -0.068058  0.860517
			-0.478221 -0.064545  0.875864
			-0.357751 -0.076087  0.930712
			-0.357936 -0.082966  0.930053
			-0.189917 -0.146091  0.970870
			-0.751177 -0.053637  0.657918
			-0.669258 -0.083466  0.738328
			-0.671832 -0.046852  0.739220
			-0.583633 -0.057667  0.809968
			-0.965824  0.253045 -0.056145
			-0.881513  0.231043  0.411770
			-0.383829  0.347951 -0.855340
			-0.763655  0.284416 -0.579602
			 0.002742  0.261699 -0.965146
			 0.074611  0.098129 -0.992373
			 0.396708 -0.192585 -0.897515
			 0.366747 -0.002695 -0.930317
			 0.340133 -0.257020 -0.904572
			 0.557165 -0.229196 -0.798146
			-0.823150 -0.146076  0.548713
			-0.723695 -0.154869  0.672519
			-0.733488 -0.106973  0.671232
			-0.715197 -0.002484  0.698919
			-0.544248  0.111540  0.831476
			-0.487898  0.338261  0.804695
			-0.552340  0.590298  0.588616
			-0.498352  0.739577  0.452406
			-0.234461  0.965719  0.111418
			-0.486436  0.811998  0.322552
			 0.202022  0.976778  0.071348
			 0.221174  0.957312 -0.186105
			 0.431206 -0.153966 -0.889019
			 0.580059 -0.154559 -0.799777
			 0.311876 -0.107021 -0.944076
			 0.251288 -0.031448 -0.967401
			 0.277198  0.174383 -0.944856
			 0.107111  0.467866 -0.877285
			 0.100591  0.963910  0.246492
			 0.044658  0.943453  0.328483
			-0.098017  0.928158  0.359048
			-0.008090  0.941056 -0.338154
			-0.061671  0.997877  0.020958
			-0.160843  0.940336  0.299830
			-0.038186  0.848227 -0.528254
			 0.155979  0.673763 -0.722297
			 0.691450 -0.205273 -0.692647
			 0.576841 -0.145135 -0.803860
			 0.633109 -0.222862 -0.741286
			 0.583451 -0.182097 -0.791470
			 0.618416 -0.227525 -0.752193
			 0.647336 -0.213664 -0.731644
			-0.511819 -0.100568  0.853187
			-0.390337 -0.198117  0.899103
			-0.344321 -0.231125  0.909959
			-0.211928 -0.215962  0.953125
			-0.383770 -0.094473  0.918583
			-0.333500 -0.090193  0.938426
			-0.217269 -0.114507  0.969372
			-0.045715 -0.190224  0.980676
			 0.037904 -0.259411  0.965023
			-0.103364 -0.215219  0.971080
			-0.782541 -0.006007  0.622570
			 0.965056 -0.038311  0.259227
			 0.365813 -0.062740  0.928571
			 0.750361 -0.123164  0.649453
			-0.712483 -0.124543  0.690548
			-0.633206 -0.082062  0.769620
			-0.460431 -0.070766  0.884870
			-0.731814  0.369323 -0.572756
			-0.895859  0.396578 -0.200409
			-0.929270  0.355611  0.099988
			-0.924941  0.357384  0.129463
			-0.789963  0.248093  0.560722
			-0.758153  0.122602  0.640447
			-0.148921  0.376982 -0.914170
			 0.000096  0.366604 -0.930377
			 0.335672  0.229272 -0.913651
			 0.321082  0.131628 -0.937859
			 0.526731 -0.073832 -0.846820
			 0.523178 -0.009440 -0.852171
			 0.459998  0.048495 -0.886594
			-0.399249  0.204489  0.893747
			-0.282364  0.101161  0.953959
			-0.433393  0.591936  0.679546
			-0.271612  0.317040  0.908687
			-0.253773  0.533664  0.806723
			-0.309891  0.743077  0.593131
			-0.386936  0.757217  0.526216
			-0.285783  0.884601  0.368522
			 0.293268  0.955992  0.008518
			 0.232773  0.971164  0.051551
			 0.115886  0.975384  0.187605
			 0.053213  0.928441  0.367650
			 0.434067  0.863553 -0.256635
			 0.613778 -0.166432 -0.771736
			 0.568057 -0.151015 -0.809015
			 0.517454 -0.146919 -0.843004
			 0.451759 -0.115109 -0.884683
			 0.470315 -0.064516 -0.880137
			 0.538522  0.160672 -0.827151
			 0.402871  0.358279 -0.842218
			-0.187469  0.895654  0.403309
			 0.154165  0.881963 -0.445393
			-0.060362  0.990433  0.124091
			 0.400153  0.586982 -0.703797
			 0.552072 -0.078559 -0.830087
			 0.543161 -0.162264 -0.823800
			 0.671781 -0.120933 -0.730812
			 0.717997 -0.178637 -0.672732
			 0.612684 -0.280436 -0.738900
			 0.596418 -0.191303 -0.779544
			 0.535011 -0.230310 -0.812847
			 0.547506 -0.277574 -0.789424
			 0.692838 -0.212197 -0.689164
			 0.551094 -0.247979 -0.796745
			-0.220282 -0.140429  0.965275
			-0.178659 -0.243696  0.953254
			-0.130798 -0.106569  0.985665
			-0.158226 -0.043480  0.986445
			 0.014195 -0.166350  0.985965
			 0.322391 -0.336024  0.884958
			 0.273776 -0.344230  0.898083
			-0.040620 -0.238876  0.970200
			 0.436839 -0.372725  0.818687
			-0.076669 -0.208885  0.974930
			-0.731475  0.046507  0.680281
			-0.720220 -0.032871  0.692966
			-0.589415 -0.095426  0.802175
			-0.641176  0.010132  0.767327
			-0.409747 -0.027019  0.911799
			-0.871824  0.276911 -0.404034
			-0.644360  0.292887 -0.706412
			-0.919575  0.339743 -0.197373
			-0.949322  0.199108  0.243196
			-0.970955  0.224927 -0.081576
			-0.697460  0.078853  0.712273
			-0.798809  0.072339  0.597220
			-0.884443  0.160047  0.438345
			-0.326338  0.258473 -0.909228
			 0.128080  0.277718 -0.952086
			 0.429435  0.246039 -0.868937
			 0.386554  0.245457 -0.889003
			 0.583118  0.036668 -0.811559
			 0.511434  0.131333 -0.849227
			 0.613985 -0.051498 -0.787636
			 0.658143 -0.063357 -0.750223
			-0.147166  0.334282  0.930912
			-0.075957  0.001692  0.997110
			-0.148568  0.148651  0.977666
			-0.243125  0.442429  0.863219
			-0.323858  0.434118  0.840629
			-0.294780  0.561123  0.773463
			-0.018744  0.772699  0.634496
			 0.020594  0.866836  0.498168
			 0.506733  0.853118 -0.124145
			 0.636608  0.770526 -0.031924
			 0.638100  0.763232  0.101516
			-0.160849  0.925467  0.342985
			-0.172719  0.935814  0.307278
			 0.045387  0.882079  0.468910
			 0.405867  0.893421  0.192536
			 0.565082 -0.155346 -0.810277
			 0.559864 -0.067746 -0.825811
			 0.541407  0.381109 -0.749423
			 0.514809  0.477577 -0.711964
			-0.327228  0.853222  0.406120
			 0.388925  0.740270 -0.548395
			 0.305226  0.905592 -0.294518
			-0.167170  0.909189  0.381352
			 0.305774  0.942379  0.135737
			 0.483155  0.674461 -0.558268
			 0.785275 -0.147184 -0.601398
			 0.714976 -0.093922 -0.692812
			 0.502485 -0.268773 -0.821748
			 0.567985 -0.301611 -0.765783
			 0.553699 -0.234330 -0.799067
			 0.704433 -0.206044 -0.679205
			 0.469351 -0.246790 -0.847823
			 0.388949 -0.199063 -0.899496
			-0.059387 -0.203085  0.977359
			-0.134409 -0.269265  0.953641
			-0.000746 -0.202262  0.979331
			-0.022867 -0.128386  0.991461
			 0.016189 -0.141771  0.989767
			-0.431984  0.053664  0.900283
			-0.230567  0.114630  0.966281
			 0.059242 -0.120843  0.990902
			 0.078046 -0.110378  0.990821
			 0.062469  0.073024  0.995372
			 0.636020 -0.034313  0.770909
			 0.385931 -0.294606  0.874222
			 0.327245 -0.166395  0.930174
			 0.675195 -0.394213  0.623464
			 0.581922 -0.386500  0.715531
			 0.611430 -0.406227  0.679068
			 0.124321 -0.251933  0.959726
			 0.673399 -0.406232  0.617665
			 0.369407 -0.303120  0.878440
			 0.739909 -0.362895  0.566428
			-0.731311  0.040022  0.680869
			-0.611359  0.110242  0.783637
			-0.844616  0.157642 -0.511638
			-0.915081  0.170911 -0.365261
			-0.960973  0.137143 -0.240257
			-0.672011  0.144478 -0.726311
			-0.997610  0.065580 -0.021769
			-0.975723  0.041051  0.215126
			-0.780611 -0.053325  0.622738
			-0.727606 -0.162589  0.666450
			-0.939434 -0.068855  0.335742
			-0.932275  0.043147  0.359167
			 0.131905  0.178447 -0.975068
			-0.166635  0.175313 -0.970308
			-0.351322  0.099279 -0.930976
			 0.435982  0.161719 -0.885306
			 0.532686  0.151206 -0.832696
			 0.614465  0.173528 -0.769624
			 0.600332  0.117693 -0.791044
			 0.683279  0.035966 -0.729271
			 0.808259 -0.070941 -0.584538
			-0.048436  0.310972  0.949184
			 0.044349  0.608705  0.792156
			 0.092268 -0.045516  0.994693
			 0.092166  0.228032  0.969282
			-0.128554  0.646595  0.751923
			 0.301081  0.738193  0.603673
			 0.640610  0.767724  0.014766
			 0.555297  0.827462  0.083372
			 0.685397  0.725487  0.062441
			 0.572318  0.782551  0.245083
			 0.698502  0.714932  0.031085
			 0.707440  0.706449  0.021388
			 0.299029  0.802080  0.516962
			 0.156214  0.750585  0.642043
			 0.027963  0.766834  0.641236
			 0.594453  0.791866  0.139909
			 0.383800  0.806016  0.450595
			 0.443895  0.855131  0.267785
			 0.636748  0.000955 -0.771071
			 0.643196 -0.131715 -0.754288
			 0.541095  0.124264 -0.831730
			 0.660209  0.269450 -0.701086
			 0.644359  0.559279 -0.521545
			 0.425432  0.817720 -0.387739
			 0.484609  0.860071 -0.159473
			 0.026498  0.879561  0.475048
			 0.528608  0.783191  0.327391
			 0.612113  0.789377  0.046915
			 0.317189  0.794591  0.517703
			 0.588899  0.730890 -0.344961
			 0.892841 -0.188604 -0.408979
			 0.571814 -0.204104 -0.794588
			 0.628914 -0.210105 -0.748548
			 0.639474 -0.213120 -0.738683
			 0.649186 -0.169106 -0.741593
			 0.656443 -0.270010 -0.704398
			 0.538954 -0.264120 -0.799856
			 0.616808 -0.348979 -0.705522
			 0.473042 -0.247858 -0.845457
			 0.759268 -0.304644 -0.575068
			 0.613728 -0.387315 -0.687986
			 0.147766 -0.157241  0.976443
			 0.214593 -0.158335  0.963784
			 0.268042 -0.102970  0.957889
			-0.420233  0.153815  0.894285
			-0.232410  0.215705  0.948397
			 0.064482  0.126713  0.989841
			 0.325141 -0.110266  0.939215
			 0.357543  0.021538  0.933648
			 0.274840  0.065177  0.959278
			 0.857723 -0.009685  0.514021
			 0.758799 -0.044470  0.649805
			 0.737400 -0.271420  0.618524
			 0.692172 -0.324048  0.644896
			 0.245184 -0.085818  0.965671
			 0.697894 -0.136505  0.703072
			 0.926462 -0.151028  0.344758
			 0.876674 -0.430504  0.214730
			 0.808639 -0.401832  0.429691
			 0.873190 -0.401035  0.276965
			 0.818919 -0.447980  0.358728
			 0.695573 -0.402656  0.595018
			 0.916731 -0.222517  0.331799
			 0.703833 -0.495544  0.508975
			 0.731366 -0.420776  0.536704
			 0.978888 -0.133294  0.154956
			 0.940195 -0.224803  0.255922
			 0.563179 -0.276313  0.778769
			-0.718732 -0.137971  0.681460
			-0.746907  0.033672  0.664076
			-0.468074  0.121529  0.875293
			-0.621269  0.085016  0.778972
			-0.880143  0.081902 -0.467589
			-0.943783  0.077414 -0.321372
			-0.989229 -0.007727 -0.146174
			-0.567220  0.018384 -0.823361
			-0.997608 -0.042987  0.054134
			-0.725915 -0.238763  0.645011
			-0.868324 -0.199777  0.453985
			-0.670242 -0.448598  0.591215
			-0.767065 -0.322742  0.554481
			-0.599698 -0.282371  0.748752
			-0.959827 -0.165614  0.226506
			 0.116252  0.073797 -0.990474
			 0.379608  0.087946 -0.920958
			-0.159581 -0.095309 -0.982573
			-0.101681 -0.057751 -0.993139
			 0.665382  0.085670 -0.741571
			 0.511543  0.050609 -0.857766
			 0.631717  0.098062 -0.768972
			 0.729744  0.102867 -0.675938
			 0.634381  0.140643 -0.760119
			 0.825472  0.022786 -0.563982
			 0.883038 -0.056844 -0.465845
			 0.891133 -0.001773 -0.453739
			 0.931584 -0.162837 -0.325015
			 0.858339 -0.087252 -0.505610
			 0.166977  0.555367  0.814669
			 0.328116 -0.027050  0.944250
			 0.201527  0.236402  0.950527
			 0.272970  0.153801  0.949649
			 0.354927  0.626088  0.694291
			 0.571191  0.817340  0.075474
			 0.447667  0.881845  0.148135
			 0.257243  0.685836  0.680775
			 0.328749  0.793900  0.511515
			 0.242053  0.655044  0.715771
			 0.382541  0.921101  0.072360
			 0.193330  0.919088  0.343365
			 0.751808  0.112393 -0.649732
			 0.739396  0.409999 -0.534036
			 0.662869  0.742163 -0.098990
			 0.768895  0.577469 -0.274463
			 0.449739  0.865074  0.222219
			 0.178344  0.771963  0.610137
			 0.713202  0.688023 -0.134043
			 0.966086 -0.191426 -0.173302
			 0.795458 -0.237299 -0.557616
			 0.780358 -0.321757 -0.536203
			 0.738316 -0.200249 -0.644042
			 0.744466 -0.082313 -0.662567
			 0.851064 -0.135791 -0.507200
			 0.808470 -0.179451 -0.560511
			 0.647220 -0.400538 -0.648595
			 0.705092 -0.429652 -0.564131
			 0.821027 -0.430748 -0.374662
			 0.848028 -0.466785 -0.250917
			 0.934534 -0.331982 -0.128195
			 0.805562 -0.409751 -0.427988
			 0.930426 -0.365117 -0.031584
			 0.361094  0.000302  0.932529
			 0.376794  0.033068  0.925707
			 0.417540  0.018371  0.908473
			-0.321243  0.159164  0.933525
			-0.068644  0.113843  0.991124
			 0.223098 -0.018225  0.974626
			 0.191013  0.021563  0.981351
			 0.501972  0.006370  0.864861
			 0.227799  0.022226  0.973454
			 0.416890 -0.014264  0.908845
			 0.206207 -0.036760  0.977818
			 0.950012 -0.295704  0.100184
			 0.514807 -0.031104  0.856742
			 0.977247 -0.058729  0.203812
			 0.972892 -0.025887 -0.229805
			 0.978385 -0.175145 -0.109938
			 0.879027 -0.437310  0.189923
			 0.849775 -0.364058 -0.381241
			 0.915150 -0.386168  0.115648
			 0.899270 -0.416846  0.132491
			 0.808505 -0.395593  0.435690
			 0.883804 -0.329006  0.332633
			 0.941852 -0.335525  0.018389
			 0.595132 -0.093165  0.798209
			 0.883290 -0.197303  0.425289
			-0.704751 -0.151165  0.693163
			-0.754528 -0.261939  0.601728
			-0.799048 -0.204963  0.565254
			 0.960046 -0.089482  0.265152
			 0.765897 -0.232291  0.599535
			-0.679967 -0.014051  0.733108
			-0.390508  0.017308  0.920437
			-0.162943  0.047323  0.985500
			-0.536960 -0.059963  0.841474
			-0.856331  0.031473 -0.515467
			-0.922046 -0.095014 -0.375239
			-0.977907 -0.064431 -0.198866
			-0.979377 -0.198349 -0.038451
			-0.988041 -0.147638  0.044468
			 0.945977 -0.030383 -0.322807
			 0.745690 -0.097721 -0.659088
			-0.771351 -0.080286 -0.631325
			-0.680559 -0.464906  0.566304
			-0.874551 -0.377854  0.303952
			-0.717923 -0.562445  0.410174
			-0.550337 -0.706828  0.444436
			-0.537000 -0.635581  0.554678
			-0.791435 -0.339397  0.508371
			 0.325664 -0.359158  0.874613
			 0.406888 -0.026654 -0.913089
			 0.222201 -0.122742 -0.967244
			-0.234782 -0.200999 -0.951040
			 0.106628 -0.273708 -0.955884
			 0.272506 -0.262675 -0.925604
			 0.579929 -0.132144 -0.803878
			 0.639694 -0.281070 -0.715396
			 0.722811 -0.021317 -0.690717
			 0.684511 -0.158975 -0.711457
			 0.601515 -0.201550 -0.773018
			 0.559022 -0.063572 -0.826712
			 0.683602  0.073751 -0.726119
			 0.757993  0.172764 -0.628966
			 0.878716  0.137103 -0.457231
			 0.906951  0.055888 -0.417513
			 0.748838  0.183232 -0.636921
			 0.878004  0.027180 -0.477882
			 0.849180  0.014073 -0.527916
			 0.916957 -0.032382 -0.397670
			 0.878621  0.001698 -0.477518
			 0.837153 -0.127077 -0.532002
			 0.960784  0.010443 -0.277100
			 0.978506  0.013732 -0.205761
			 0.434358  0.383402  0.815069
			 0.380502  0.620131  0.686043
			 0.400758  0.860883  0.313487
			 0.181711  0.697588  0.693074
			 0.090812  0.828697  0.552281
			 0.106108  0.956463  0.271882
			 0.355290  0.812092  0.462899
			 0.005860  0.901894  0.431919
			 0.803137  0.070750 -0.591579
			 0.815142  0.332004 -0.474676
			 0.176783  0.893315  0.413202
			 0.712057  0.698037 -0.075622
			 0.439362  0.879705  0.181879
			 0.808301  0.360073 -0.465830
			 0.878934 -0.390088 -0.274421
			 0.858426 -0.265271 -0.439016
			 0.910346  0.012615 -0.413656
			 0.928063 -0.234560 -0.289275
			 0.953410 -0.115346 -0.278757
			 0.925955 -0.351202 -0.138796
			 0.528273  0.218609  0.820450
			 0.518780  0.188512  0.833865
			 0.553399  0.138885  0.821256
			 0.461162  0.252326  0.850683
			 0.341270 -0.074663  0.936995
			 0.002227 -0.047167  0.998884
			 0.252598 -0.123692  0.959633
			 0.632545  0.003934  0.774513
			 0.418590 -0.098337  0.902836
			 0.883383  0.029218  0.467739
			 0.891862  0.016907  0.451991
			 0.948849  0.068370 -0.308238
			 0.998733 -0.002003  0.050283
			 0.912199 -0.007604 -0.409677
			 0.906075  0.077996 -0.415866
			 0.974274 -0.225298 -0.005618
			 0.794459  0.031401  0.606505
			 0.963972 -0.083895  0.252428
			-0.611617 -0.338166  0.715240
			-0.496547 -0.203688  0.843773
			-0.692126 -0.294271  0.659065
			-0.708761 -0.472827  0.523538
			-0.272125 -0.105043  0.956511
			-0.620827 -0.246055 -0.744332
			-0.727543 -0.368664 -0.578591
			-0.861391 -0.328154 -0.387712
			-0.912602 -0.349016 -0.212945
			-0.817977 -0.574131 -0.035872
			-0.818049 -0.563041  0.117395
			-0.564274 -0.756568  0.330453
			-0.534354 -0.840459  0.089970
			-0.562414 -0.761819  0.321439
			-0.552153 -0.564570  0.613505
			-0.719307 -0.441489  0.536362
			-0.522207 -0.832405  0.185477
			-0.284879 -0.948943  0.135465
			-0.399655 -0.812726  0.423972
			 0.527345 -0.243271 -0.814080
			 0.424303 -0.236362 -0.874128
			 0.377484 -0.375223 -0.846589
			 0.021343 -0.421465 -0.906594
			-0.288818 -0.357511 -0.888127
			 0.321387 -0.624550 -0.711792
			-0.533890 -0.384910 -0.752865
			 0.498892 -0.380270 -0.778782
			 0.560603 -0.216626 -0.799248
			 0.411999 -0.565307 -0.714622
			 0.518720 -0.473585 -0.711791
			 0.608618 -0.484468 -0.628390
			 0.661356 -0.352293 -0.662192
			 0.586335 -0.468518 -0.660834
			 0.691206 -0.075404 -0.718714
			 0.887119  0.136482 -0.440900
			 0.809384  0.151833 -0.567313
			 0.861001  0.218228 -0.459407
			 0.971059  0.055234 -0.232364
			 0.894135  0.076849 -0.441154
			 0.919842  0.202880 -0.335753
			 0.917570  0.037332 -0.395817
			 0.467056  0.568736  0.677051
			 0.134254  0.897081  0.420978
			 0.501211  0.460836  0.732406
			 0.569526  0.521610  0.635265
			 0.424971  0.772607  0.471676
			 0.839968  0.134761 -0.525636
			 0.324559  0.874903  0.359453
			 0.860020  0.500317 -0.100246
			 0.857555  0.306250 -0.413293
			 0.551615  0.800738  0.233535
			 0.887840  0.137520 -0.439123
			 0.959689  0.245082 -0.137592
			 0.980934  0.046845 -0.188611
			 0.976404 -0.167506 -0.136298
			 0.998990  0.009529 -0.043909
			 0.666488  0.349768  0.658374
			 0.227741 -0.142335  0.963263
			 0.051812 -0.178291  0.982613
			 0.193976 -0.190501  0.962332
			 0.641267 -0.002286  0.767314
			 0.860152  0.080942  0.503574
			 0.349258 -0.208758  0.913476
			 0.481529 -0.155422  0.862539
			 0.992379  0.121554 -0.020207
			 0.953002  0.175008 -0.247304
			 0.987317 -0.068197  0.143365
			 0.871503  0.111407  0.477567
			-0.374205 -0.334295  0.864996
			-0.617551 -0.474204  0.627504
			-0.460629 -0.539886  0.704517
			-0.220900 -0.220968  0.949935
			 0.122189 -0.761173  0.636934
			-0.686028 -0.560743 -0.463609
			-0.253967 -0.611625 -0.749277
			-0.649216 -0.725458 -0.228538
			-0.571414 -0.816627  0.081280
			-0.370611 -0.927272  0.053043
			-0.363003 -0.904423  0.224163
			-0.354479 -0.932345 -0.071256
			-0.443278 -0.687129  0.575638
			-0.516545 -0.742556  0.426371
			 0.951631 -0.222548  0.211829
			 0.750932 -0.421391  0.508459
			-0.356327 -0.932887 -0.052464
			 0.034695 -0.997462 -0.062173
			 0.043691 -0.970567 -0.236834
			-0.011721 -0.919413 -0.393120
			 0.385886 -0.844697 -0.370917
			 0.125800 -0.853904 -0.504998
			 0.555168 -0.685879 -0.470486
			 0.402831 -0.543059 -0.736759
			 0.528044 -0.432681 -0.730724
			 0.698716 -0.258956 -0.666887
			 0.456818 -0.578828 -0.675481
			 0.271091 -0.753638 -0.598782
			 0.234914 -0.734190 -0.637009
			 0.302989 -0.629289 -0.715677
			 0.500267 -0.658574 -0.562151
			 0.397504 -0.713310 -0.577217
			 0.619476 -0.592631 -0.514818
			 0.569740 -0.670716 -0.474907
			 0.928007 -0.027564 -0.371542
			 0.971432  0.139240 -0.192178
			 0.339326  0.851001  0.400818
			 0.646608  0.596325  0.475704
			 0.819764  0.523764  0.231642
			 0.973095  0.226574  0.041836
			 0.975074  0.127132  0.181847
			 0.915601  0.316965  0.247403
			 0.796939  0.342214  0.497773
			 0.180266 -0.322345  0.929300
			-0.083086 -0.297016  0.951251
			 0.024009 -0.283718  0.958607
			 0.651142 -0.087303  0.753918
			 0.908954 -0.013710  0.416671
			 0.901915  0.098179  0.420608
			 0.715716 -0.270891  0.643714
			 0.418810 -0.386585  0.821675
			 0.971701  0.157586 -0.175966
			 0.993902  0.107993  0.022294
			 0.886287  0.231645  0.401043
			-0.233383 -0.416726  0.878562
			-0.598354 -0.602677  0.527971
			-0.360281 -0.618776  0.698079
			-0.321730 -0.793597 -0.516424
			-0.216917 -0.941621 -0.257481
			 0.146869 -0.976279 -0.159084
			-0.327230 -0.869328  0.370391
			-0.130132 -0.985508 -0.108808
			 0.252087 -0.943623 -0.214543
			 0.309355 -0.891668 -0.330495
			 0.198362 -0.863773 -0.463193
			 0.177370 -0.849624 -0.496668
			 0.469692 -0.486282 -0.736830
			 0.692658 -0.359723 -0.625160
			 0.891259 -0.210601 -0.401628
			 0.236253 -0.703921 -0.669835
			 0.404063 -0.624712 -0.668182
			 0.986342 -0.071648 -0.148311
			 0.979781  0.086757 -0.180282
			 0.987325  0.090704 -0.130238
			 0.834724  0.374700  0.403528
			-0.019832 -0.491205  0.870818
			 0.241582 -0.569820  0.785457
			 0.376566 -0.570965  0.729519
			-0.133289 -0.447825  0.884131
			 0.970918 -0.106065  0.214635
			 0.994618  0.065236 -0.080496
			 0.632011 -0.528257  0.567015
			 0.856312 -0.478640  0.193995
			 0.951881 -0.274009  0.137263
			-0.176460 -0.696946  0.695074
			-0.093966 -0.916788  0.388163
			 0.198715 -0.966176  0.164367
			 0.160268 -0.965704 -0.204279
			 0.542130 -0.715876 -0.440019
			 0.526369 -0.844204 -0.101265
			 0.634373 -0.464351 -0.618020
			 0.749736 -0.353336 -0.559508
			 0.917806 -0.346715 -0.193446
			 0.655174 -0.557563 -0.509775
			 0.126112 -0.788472  0.602004
			 0.443273 -0.776265  0.448244
			 0.697681 -0.660976  0.276320
			 0.780814 -0.623163 -0.044681
			 0.334375 -0.910629  0.242794
			 0.770693 -0.529979 -0.353772
		</DataArray>
	</PointData>
	<Points>
		<DataArray type="Float32" NumberOfComponents="3" format="ascii">
			-0.006670 -0.006580  0.000723
			-0.006835 -0.007107  0.000559
			-0.006906 -0.008269  0.001125
			-0.006276 -0.006186  0.001116
			-0.006733 -0.006554  0.000500
			-0.006733 -0.006554  0.000500
			-0.006620 -0.006307  0.000694
			-0.006881 -0.007093  0.000337
			-0.006535 -0.008471  0.001713
			-0.006310 -0.007990  0.001746
			-0.007139 -0.009947  0.001748
			-0.006969 -0.007658  0.000175
			-0.007160 -0.008755  0.000738
			-0.006072 -0.006302  0.001345
			-0.006670 -0.005977  0.000439
			-0.005403 -0.004856  0.001495
			-0.006402 -0.004897  0.000543
			-0.005364 -0.004268  0.001339
			-0.006733 -0.006554  0.000500
			-0.006796 -0.006528  0.000277
			-0.007110 -0.008228 -0.000207
			-0.006896 -0.007128 -0.000325
			-0.006816 -0.006736  0.000299
			-0.005890 -0.008842  0.002418
			-0.006344 -0.010405  0.002594
			-0.007211 -0.010511  0.001940
			-0.007619 -0.010300  0.001131
			-0.007190 -0.008751  0.000516
			-0.007680 -0.010291  0.000687
			-0.005274 -0.004931  0.001627
			-0.004749 -0.004621  0.002034
			-0.004775 -0.006439  0.002544
			-0.006687 -0.006040 -0.000665
			-0.006481 -0.004286 -0.000406
			-0.006421 -0.004280  0.000258
			-0.005179 -0.004373  0.001567
			-0.005179 -0.004373  0.001567
			-0.006143 -0.003824  0.000426
			-0.005179 -0.004373  0.001567
			-0.005056 -0.003833  0.001508
			-0.005252 -0.003132  0.000775
			-0.006816 -0.006745 -0.000367
			-0.006798 -0.006572 -0.000385
			-0.007351 -0.009295  0.000131
			-0.006754 -0.006615 -0.000604
			-0.007252 -0.009455 -0.000299
			-0.004899 -0.008209  0.002841
			-0.004784 -0.007663  0.002782
			-0.005685 -0.009575  0.002756
			-0.004813 -0.008875  0.003004
			-0.006789 -0.011366  0.002552
			-0.006138 -0.011140  0.002910
			-0.007434 -0.010992  0.001898
			-0.005769 -0.010137  0.002841
			-0.007993 -0.011901  0.001528
			-0.007990 -0.011313  0.001023
			-0.007657 -0.011474  0.001845
			-0.007958 -0.011363  0.000583
			-0.004149 -0.005582  0.002773
			-0.003879 -0.004508  0.002803
			-0.004861 -0.003945  0.001736
			-0.003443 -0.004157  0.002982