<?xml version="1.0"?>
<VTKFile type="PolyData" version="0.1" byte_order="LittleEndian" compressor="vtkZLibDataCompressor">
	<PolyData>
		<Piece NumberOfPoints="1914" NumberOfVerts="0" NumberOfLines="0" NumberOfStrips="0" NumberOfPolys="3824">
		<PointData Normals="Normals">
		<DataArray type="Float32" Name="Normals" NumberOfComponents="3" format="ascii">
			-0.019431 -0.106893  0.994081
			-0.017167 -0.242017  0.970120
			 0.180505 -0.162497  0.970058
			 0.075004 -0.030631  0.996713
			-0.271194 -0.176317  0.946238
			-0.164029 -0.065494  0.984279
			 0.407720 -0.264504  0.873957
			-0.397079 -0.277445  0.874844
			-0.204160 -0.348334  0.914867
			 0.154091 -0.316862  0.935871
			 0.348745 -0.139014  0.926851
			 0.389114 -0.213860  0.896022
			-0.053511  0.055501  0.997024
			 0.332004 -0.051588  0.941866
			 0.160481  0.036302  0.986371
			-0.398818 -0.200940  0.894744
			-0.373254 -0.197376  0.906490
			-0.150445  0.032914  0.988070
			-0.357777 -0.174826  0.917296
			 0.629594 -0.270040  0.728485
			 0.361910 -0.297220  0.883562
			 0.787274 -0.295408  0.541233
			 0.630866 -0.310149  0.711207
			-0.527677 -0.440035  0.726585
			-0.520585 -0.344550  0.781202
			 0.059254 -0.425801  0.902875
			-0.310121 -0.517683  0.797389
			 0.361275 -0.449885  0.816752
			 0.487904 -0.403728  0.773921
			 0.608679 -0.145081  0.780040
			-0.097142  0.146924  0.984366
			-0.003068  0.143407  0.989659
			 0.388746  0.020626  0.921114
			-0.388712 -0.170109  0.905520
			-0.417267 -0.298541  0.858348
			-0.311860 -0.159304  0.936678
			-0.280601 -0.150128  0.948011
			-0.075242  0.056075  0.995587
			 0.804286 -0.250264  0.538974
			 0.876058 -0.332445  0.349290
			 0.780807 -0.344223  0.521393
			 0.874807 -0.310569  0.371832
			-0.468082 -0.587808  0.659834
			-0.586127 -0.594961  0.549979
			-0.440532 -0.631697  0.637880
			-0.466047 -0.543902  0.697833
			 0.265939 -0.607006  0.748879
			-0.122221 -0.629008  0.767731
			 0.627129 -0.443842  0.640088
			 0.764009 -0.218831  0.606962
			 0.039333  0.178239  0.983201
			-0.018007  0.119401  0.992683
			 0.191657  0.119512  0.974158
			 0.636986 -0.106591  0.763471
			 0.518253  0.009524  0.855174
			 0.440762  0.102631  0.891737
			-0.086738 -0.295484  0.951402
			-0.252431 -0.463253  0.849515
			-0.046931 -0.248533  0.967486
			 0.005208 -0.026485  0.999636
			 0.056852  0.160107  0.985461
			-0.047589  0.112055  0.992562
			 0.829117 -0.366972  0.421777
			 0.862496 -0.411415  0.294683
			 0.863840 -0.344391  0.367662
			 0.847271 -0.276458  0.453544
			-0.574415 -0.748337  0.331721
			 0.470428 -0.725094  0.502927
			 0.950203 -0.218086  0.222605
			-0.498082 -0.713456  0.492845
			-0.394547 -0.726465  0.562656
			-0.146638 -0.709558  0.689220
			-0.533588 -0.743742  0.402656
			-0.472022 -0.721718  0.506279
			-0.389981 -0.561913  0.729499
			 0.502459 -0.605017  0.617649
			 0.170264 -0.699154  0.694402
			 0.733310 -0.468137  0.493056
			 0.801386 -0.182208  0.569720
			 0.357164  0.090709  0.929627
			 0.090905  0.063934  0.993805
			 0.387200  0.120884  0.914037
			-0.109494  0.096663  0.989276
			 0.285420  0.118806  0.951010
			 0.659441 -0.035180  0.750933
			 0.493208  0.062429  0.867668
			 0.289001  0.139166  0.947160
			 0.856185  0.071175  0.511744
			 0.883185  0.075540  0.462901
			 0.054045 -0.247173  0.967463
			-0.051608 -0.370064  0.927572
			-0.226025 -0.483573  0.845618
			-0.400488 -0.623234  0.671706
			 0.069025  0.096133  0.992972
			-0.217456 -0.040892  0.975213
			-0.144834  0.160537  0.976346
			 0.013638  0.151773  0.988321
			-0.040394 -0.231282  0.972048
			 0.018640  0.121716  0.992390
			-0.073008  0.126112  0.989326
			 0.799817 -0.492453  0.343195
			 0.726773 -0.642427  0.243080
			 0.824644 -0.554027  0.114088
			 0.837326 -0.546023  0.027259
			 0.880729 -0.427854  0.203118
			 0.755785 -0.653224  0.045684
			 0.732987 -0.677300  0.063205
			 0.908818 -0.301670  0.288175
			 0.857078 -0.327340  0.397826
			 0.883909 -0.309714  0.350402
			 0.872031 -0.331697  0.359916
			 0.840996 -0.291521  0.455786
			 0.742026 -0.102196  0.662536
			 0.803721 -0.203335  0.559184
			-0.227164 -0.871734  0.434139
			-0.681399 -0.713430  0.163442
			-0.660071 -0.751023  0.016476
			-0.456400 -0.889002 -0.037084
			-0.306026 -0.942627  0.133426
			 0.746505 -0.558134  0.362238
			-0.366968 -0.837953  0.403943
			-0.633414 -0.682933  0.363854
			-0.061959 -0.755869  0.651784
			-0.585464 -0.792504  0.170791
			-0.500812 -0.817611  0.284078
			 0.245954 -0.785983  0.567220
			 0.629605 -0.606436  0.485625
			 0.339330  0.054492  0.939088
			 0.975495  0.037794  0.216749
			 0.886041  0.026222  0.462865
			-0.063238  0.089309  0.993994
			 0.086877  0.083466  0.992716
			 0.259979  0.037885  0.964871
			-0.238509  0.213545  0.947371
			-0.158630  0.155996  0.974937
			 0.306767  0.120609  0.944112
			 0.456819  0.073082  0.886552
			 0.635547  0.044180  0.770797
			 0.692766  0.007604  0.721122
			 0.535026  0.082343  0.840813
			-0.246808 -0.252827  0.935502
			-0.443117 -0.516434  0.732764
			-0.437517 -0.395186  0.807717
			-0.267402 -0.346384  0.899174
			-0.478582 -0.702441  0.526818
			-0.519198 -0.552747  0.651847
			-0.014873  0.162513  0.986594
			-0.418459  0.138933  0.897546
			-0.458707  0.010025  0.888531
			-0.028644  0.219318  0.975233
			-0.319209  0.225455  0.920476
			-0.106277  0.217709  0.970210
			 0.538786 -0.762466  0.358268
			 0.631543 -0.763891  0.132757
			 0.379165 -0.918366  0.113299
			 0.502730 -0.854317  0.131925
			 0.606414 -0.768366  0.204636
			 0.864748 -0.493028 -0.095572
			 0.719623 -0.635316 -0.280209
			 0.766853 -0.576481 -0.282146
			 0.722555 -0.678297 -0.133521
			 0.890996 -0.379134  0.249767
			 0.862515 -0.488119 -0.133448
			 0.876848 -0.477966  0.051829
			 0.524658 -0.850140 -0.044668
			 0.546148 -0.837649  0.008151
			 0.515365 -0.838879 -0.175159
			 0.916340 -0.316064  0.245814
			 0.984472 -0.121634  0.126567
			 0.964242 -0.192740  0.181903
			 0.897089 -0.310835  0.314027
			 0.872845 -0.306489  0.379745
			 0.926690 -0.262448  0.269012
			 0.956044 -0.209017  0.205648
			 0.874406 -0.294901  0.385289
			 0.813227 -0.068855  0.577859
			 0.846569 -0.198936  0.493706
			 0.047029 -0.953012  0.299261
			-0.726544 -0.679055 -0.104972
			-0.627180 -0.738868 -0.246413
			-0.068238 -0.992948 -0.096941
			-0.305282 -0.940889 -0.146734
			-0.413094 -0.860135 -0.299200
			 0.007191 -0.996554  0.082630
			-0.647784 -0.746545 -0.151810
			-0.529632 -0.845888 -0.062955
			-0.635648 -0.738596  0.224560
			-0.575333 -0.802903  0.156009
			-0.648051 -0.622765  0.438400
			-0.434789 -0.899064 -0.051416
			 0.537287 -0.035523  0.842651
			-0.101271  0.093154  0.990488
			-0.191461  0.131048  0.972712
			 0.235696  0.018601  0.971649
			-0.341509  0.235561  0.909881
			-0.341690  0.324284  0.882093
			-0.515110  0.378895  0.768830
			 0.752906  0.007802  0.658082
			 0.741907 -0.051304  0.668537
			-0.497908 -0.200850  0.843651
			-0.637053 -0.354996  0.684209
			-0.660495 -0.167641  0.731876
			-0.641844 -0.522217  0.561539
			-0.681298  0.127825  0.720760
			-0.552918  0.213810  0.805336
			-0.642184 -0.001129  0.766549
			-0.625837  0.206039  0.752247
			-0.380307  0.258406  0.888027
			-0.240649  0.277720  0.930032
			 0.358862 -0.910853  0.203875
			 0.324460 -0.945038  0.040370
			 0.287549 -0.957754 -0.004823
			 0.127214 -0.991003 -0.041591
			 0.320986 -0.946835  0.021695
			 0.772022 -0.504480 -0.386629
			 0.568288 -0.577633 -0.585994
			 0.505044 -0.703850 -0.499525
			 0.552656 -0.748307 -0.366889
			 0.906728 -0.405321  0.116442
			 0.841706 -0.442406 -0.309530
			 0.779955 -0.441778 -0.443286
			 0.243321 -0.965074 -0.097089
			 0.251288 -0.949170 -0.189554
			 0.232670 -0.892684 -0.385980
			 0.985095 -0.111516  0.130967
			 0.926616 -0.309026  0.214210
			 0.954639 -0.188763  0.230289
			 0.930713 -0.223294  0.289678
			 0.982220 -0.145341  0.118829
			 0.982739 -0.175736  0.057796
			 0.924055 -0.226244  0.308117
			 0.929724 -0.112020  0.350805
			 0.927337 -0.069295  0.367757
			 0.840352 -0.065430  0.538077
			-0.619740 -0.682439 -0.387556
			-0.588201 -0.619286 -0.520101
			-0.464563 -0.756110 -0.460955
			-0.015399 -0.991981 -0.125447
			-0.207188 -0.935769 -0.285323
			-0.314091 -0.758981 -0.570346
			-0.607704 -0.736775 -0.296408
			-0.858783 -0.510403  0.044497
			-0.804536 -0.519161  0.288434
			-0.629252 -0.770064 -0.105089
			-0.466713 -0.883366  0.042929
			-0.802248 -0.328643  0.498390
			-0.830132 -0.353115  0.431498
			-0.324651 -0.927288 -0.186385
			-0.299588 -0.857507 -0.418244
			 0.380729 -0.009432  0.924639
			 0.605296 -0.065931  0.793265
			 0.375954  0.018423  0.926455
			 0.779998 -0.148619  0.607878
			 0.703153 -0.126250  0.699741
			 0.159768  0.053960  0.985679
			 0.078875  0.065350  0.994740
			-0.096516  0.098666  0.990429
			-0.301043  0.178342  0.936786
			-0.352859  0.168072  0.920458
			-0.292476  0.140074  0.945958
			-0.567808  0.275906  0.775545
			-0.365716  0.348531  0.863005
			-0.582027  0.368661  0.724799
			-0.737242  0.406832  0.539409
			-0.763343  0.364071  0.533629
			 0.913992 -0.160034  0.372837
			-0.765852 -0.298380  0.569597
			-0.797215 -0.100531  0.595267
			-0.759467  0.039987  0.649316
			-0.889640  0.148589  0.431813
			-0.832728  0.177814  0.524353
			-0.692476  0.313662  0.649687
			-0.848016  0.249788  0.467414
			-0.511151  0.217503  0.831515
			-0.551610  0.318723  0.770806
			-0.005541 -0.984412 -0.175788
			 0.660977 -0.424021 -0.619125
			 0.243791 -0.562578 -0.789982
			 0.443757 -0.464310 -0.766483
			 0.277770 -0.681267 -0.677288
			 0.214298 -0.767649 -0.603979
			 0.942565 -0.325452 -0.075186
			 0.677687 -0.349239 -0.647126
			 0.814890 -0.299733 -0.496100
			 0.071332 -0.944348 -0.321121
			-0.065547 -0.823328 -0.563768
			 0.986057 -0.158055  0.052058
			 0.992400 -0.114924  0.043979
			 0.968887 -0.122885  0.214843
			 0.982280 -0.041799 -0.182698
			 0.993178 -0.042746 -0.108488
			 0.994703  0.000194 -0.102795
			 0.982102 -0.071929 -0.174072
			 0.997099 -0.041592  0.063754
			 0.961564 -0.093890  0.258031
			-0.525571 -0.687352 -0.501320
			 0.954649 -0.227230 -0.192383
			 0.746592 -0.475585 -0.465208
			-0.428182 -0.573086 -0.698737
			-0.485494 -0.581789 -0.652547
			-0.437415 -0.685159 -0.582430
			-0.127963 -0.892733 -0.432034
			-0.123768 -0.678683 -0.723928
			-0.326686 -0.626932 -0.707272
			-0.519829 -0.671995 -0.527447
			-0.660821 -0.569649 -0.488687
			-0.897776 -0.430823 -0.091591
			-0.758398 -0.637401 -0.136206
			-0.941176 -0.275431  0.195772
			-0.964656 -0.258967  0.048743
			-0.981096 -0.180323  0.070242
			-0.363752 -0.854384 -0.371095
			-0.393321 -0.895448 -0.208498
			-0.474990 -0.756595 -0.449387
			-0.902506 -0.066291  0.425544
			-0.910811 -0.184459  0.369322
			-0.174361 -0.795649 -0.580122
			-0.151047 -0.792785 -0.590489
			-0.324618 -0.745325 -0.582335
			 0.471433 -0.005325  0.881886
			 0.767523 -0.110366  0.631449
			 0.626113 -0.044688  0.778451
			 0.301206  0.035459  0.952900
			 0.034026  0.093097  0.995076
			 0.905471 -0.242058  0.348613
			 0.824089 -0.169201  0.540600
			-0.216303  0.176139  0.960306
			-0.480171  0.244932  0.842285
			-0.435304  0.196704  0.878532
			-0.368881  0.225049  0.901820
			-0.445915  0.251250  0.859089
			-0.668359  0.290424  0.684800
			-0.604093  0.342701  0.719464
			-0.697687  0.301760  0.649749
			-0.780027  0.347749  0.520220
			-0.594107  0.265232  0.759400
			-0.806077  0.332859  0.489330
			-0.819837  0.346929  0.455530
			-0.847260  0.365257  0.385666
			-0.866584  0.378521  0.325198
			-0.831334  0.371866  0.413036
			-0.893057  0.349059  0.283916
			 0.993528 -0.113513  0.004059
			 0.975090 -0.220236 -0.026354
			-0.979450 -0.007207  0.201558
			-0.930855  0.230602  0.283429
			-0.969355  0.115200  0.216980
			-0.932392  0.256629  0.254531
			-0.916956  0.263061  0.299984
			 0.429150 -0.358406 -0.829081
			 0.558222 -0.309649 -0.769744
			 0.127152 -0.436225 -0.890809
			 0.033374 -0.604147 -0.796173
			 0.962840 -0.110333 -0.246507
			 0.621220 -0.247437 -0.743546
			 0.513845 -0.185685 -0.837546
			 0.815857 -0.109229 -0.567844
			 0.640168 -0.207146 -0.739780
			 0.955183 -0.023571 -0.295075
			 0.958064  0.061439 -0.279889
			 0.889421  0.126108 -0.439349
			 0.907665  0.029527 -0.418656
			 0.930314  0.123623 -0.345301
			 0.895864  0.070707 -0.438667
			 0.984250 -0.092928 -0.150387
			 0.430176 -0.649152 -0.627336
			-0.575569 -0.507922 -0.640887
			-0.491532 -0.469400 -0.733526
			-0.160916 -0.615097 -0.771856
			-0.356229 -0.467502 -0.809038
			-0.143683 -0.521189 -0.841259
			-0.581917 -0.594502 -0.554924
			-0.351471 -0.718204 -0.600542
			-0.699576 -0.598086 -0.391008
			-0.958759 -0.273826 -0.076157
			-0.773505 -0.498965 -0.390800
			-0.981672 -0.128005  0.141192
			-0.984387 -0.059007  0.165835
			-0.221320 -0.785550 -0.577865
			-0.485802 -0.721328 -0.493641
			-0.072078 -0.689202 -0.720976
			 0.488311  0.014224  0.872554
			 0.283095  0.059956  0.957216
			 0.374982  0.036557  0.926311
			 0.810777 -0.110631  0.574806
			 0.872370 -0.178316  0.455163
			 0.900829 -0.247566  0.356678
			 0.710991 -0.061817  0.700479
			 0.568798 -0.010598  0.822409
			 0.130199  0.104528  0.985962
			-0.179461  0.161428  0.970430
			-0.102750  0.162370  0.981366
			 0.947979 -0.296866  0.114922
			 0.920462 -0.283709  0.268811
			-0.380883  0.245206  0.891517
			-0.252615  0.214496  0.943492
			-0.500654  0.283696  0.817840
			-0.494893  0.287654  0.819961
			-0.787343  0.353738  0.504937
			-0.652578  0.280321  0.703962
			-0.754905  0.309190  0.578377
			-0.877044  0.271799  0.396130
			-0.965892  0.240323  0.096427
			-0.615736  0.299697  0.728733
			-0.909308  0.304236  0.283901
			-0.935630  0.317135  0.154989
			-0.936074  0.331951  0.116504
			-0.960547  0.270426  0.064960
			 0.967999 -0.222204 -0.116633
			 0.887577 -0.158673 -0.432470
			 0.952292 -0.275090 -0.132157
			 0.947028 -0.120659 -0.297624
			-0.968034  0.202801  0.147586
			-0.927672  0.294155  0.229995
			-0.964866  0.107700  0.239657
			-0.921487  0.252408  0.295216
			 0.112371 -0.297638 -0.948042
			 0.305966 -0.221783 -0.925850
			-0.184806 -0.341145 -0.921665
			 0.871449  0.015194 -0.490250
			 0.484757 -0.063898 -0.872312
			 0.348168 -0.000547 -0.937432
			 0.280487 -0.108293 -0.953729
			 0.596885 -0.063908 -0.799778
			 0.762740 -0.013969 -0.646555
			 0.771511  0.034891 -0.635258
			 0.824231  0.206914 -0.527096
			 0.631588  0.214597 -0.745014
			 0.790355  0.178041 -0.586208
			 0.700794  0.248105 -0.668829
			 0.704310  0.081534 -0.705195
			-0.481111 -0.438076 -0.759356
			-0.354953 -0.599331 -0.717503
			-0.496475 -0.316404 -0.808333
			-0.452855 -0.325388 -0.830087
			-0.915635 -0.298692 -0.269066
			-0.611308 -0.521879 -0.594932
			-0.986958 -0.139979  0.079502
			-0.977367 -0.198371 -0.073510
			-0.638790 -0.500529 -0.584310
			-0.415067 -0.664437 -0.621484
			-0.814854 -0.325582 -0.479594
			-0.517894 -0.700103 -0.491570
			-0.960184  0.110642  0.256525
			-0.303849 -0.782154 -0.543976
			-0.145201 -0.670197 -0.727841
			 0.007627 -0.613366 -0.789762
			 0.032985 -0.538956 -0.841688
			 0.423411  0.033489  0.905319
			 0.295000  0.072917  0.952711
			 0.897325 -0.195372  0.395776
			 0.775444 -0.081016  0.626197
			 0.824677 -0.126775  0.551213
			 0.924125 -0.313429  0.218531
			 0.929690 -0.314291  0.192086
			 0.700148 -0.063183  0.711197
			 0.514333 -0.020578  0.857344
			 0.440813  0.017784  0.897423
			 0.654163 -0.071481  0.752968
			 0.030665  0.147943  0.988520
			 0.216497  0.108388  0.970248
			-0.143990  0.200715  0.969010
			 0.987797 -0.155696 -0.004100
			 0.954647 -0.262442  0.140618
			 0.929124 -0.299749  0.216516
			-0.375136  0.270287  0.886689
			-0.478198  0.298626  0.825923
			-0.480825  0.295725  0.825442
			-0.567967  0.299753  0.766526
			-0.823354  0.338629  0.455432
			-0.731744  0.293486  0.615156
			-0.805108  0.266927  0.529671
			-0.979016  0.161574  0.124180
			-0.844327  0.251664  0.473051
			-0.954614  0.268209 -0.129523
			-0.957974  0.168232 -0.232345
			-0.572058  0.307119  0.760544
			-0.629972  0.321609  0.706897
			-0.923245  0.384132  0.007897
			-0.930569  0.345917 -0.119931
			 0.874548 -0.229174 -0.427370
			 0.595016 -0.069255 -0.800724
			 0.753923 -0.160378 -0.637086
			 0.949737 -0.269075 -0.159992
			 0.918977 -0.289390 -0.267833
			-0.947961  0.295925  0.117466
			-0.901267  0.309064  0.303640
			-0.920335  0.369231  0.129039
			-0.940028  0.312954  0.135674
			-0.145344 -0.228346 -0.962670
			 0.038886 -0.194282 -0.980175
			 0.068384 -0.079433 -0.994492
			-0.371084 -0.179156 -0.911153
			 0.344094  0.139889 -0.928456
			 0.297633  0.180858 -0.937393
			 0.463151  0.103962 -0.880161
			 0.226627  0.206159 -0.951913
			 0.149254  0.081035 -0.985473
			 0.503174  0.135785 -0.853451
			 0.488089  0.044425 -0.871663
			 0.472729  0.308250 -0.825535
			 0.228056  0.228396 -0.946481
			 0.599326  0.197095 -0.775862
			 0.397179  0.262403 -0.879428
			-0.371862 -0.423353 -0.826130
			-0.039198 -0.505176 -0.862126
			-0.368217 -0.211257 -0.905421
			-0.931067 -0.161420 -0.327198
			 0.924746 -0.227787 -0.304891
			 0.877636 -0.097823 -0.469239
			-0.927444  0.029032 -0.372834
			-0.987624  0.050676  0.148429
			-0.999662 -0.022547 -0.012954
			-0.378038 -0.538222 -0.753262
			-0.558495 -0.409087 -0.721617
			-0.719881 -0.249247 -0.647802
			-0.161738 -0.571874 -0.804239
			-0.847274 -0.097389 -0.522152
			-0.902930 -0.031180 -0.428656
			-0.032446 -0.437705 -0.898533
			-0.106435 -0.316707 -0.942533
			 0.112159 -0.375579 -0.919979
			 0.140753 -0.473849 -0.869285
			 0.120686  0.115739  0.985921
			 0.347898  0.035695  0.936852
			 0.928444 -0.296353  0.223979
			 0.933873 -0.212968  0.287273
			 0.931396 -0.278530  0.234354
			 0.883140 -0.173396  0.435888
			 0.819010 -0.142706  0.555749
			 0.942228 -0.208790  0.261941
			 0.920358 -0.388140 -0.047839
			 0.921666 -0.383361 -0.059716
			 0.888363 -0.448465 -0.098440
			 0.519299 -0.147019  0.841852
			 0.256600  0.076069  0.963520
			 0.280520  0.059333  0.958013
			 0.491117  0.019720  0.870870
			 0.358854  0.048550  0.932130
			 0.268850  0.072314  0.960464
			 0.667583 -0.132143  0.732715
			-0.356899  0.252112  0.899479
			-0.177412  0.184092  0.966765
			 0.988273 -0.149275 -0.032136
			 0.995632 -0.088093  0.030942
			 0.954753 -0.297394  0.001716
			-0.682112  0.304536  0.664816
			-0.699687  0.308039  0.644631
			-0.749331  0.302162  0.589237
			-0.329985  0.226232  0.916477
			-0.521917  0.263520  0.811271
			-0.639785  0.276760  0.716993
			-0.881135  0.233755  0.411048
			-0.941975  0.031849 -0.334170
			-0.960633  0.193166  0.199677
			-0.995133  0.096579 -0.019553
			-0.869076  0.199552 -0.452643
			-0.863274  0.090954 -0.496472
			-0.859461  0.430312 -0.275969
			-0.753191  0.579508 -0.311245
			-0.863804  0.498013 -0.076324
			-0.749019  0.295369 -0.593066
			 0.785400 -0.258001 -0.562657
			 0.602308 -0.214102 -0.769016
			 0.561272 -0.129224 -0.817481
			 0.375449 -0.118095 -0.919288
			 0.283855 -0.025495 -0.958528
			 0.575053 -0.135998 -0.806733
			 0.804335 -0.343908 -0.484533
			 0.900937 -0.378749 -0.211804
			-0.918157  0.389286 -0.073788
			-0.952074  0.226139  0.205951
			-0.942360  0.320207  0.097082
			-0.945242  0.194529 -0.262061
			-0.941081  0.264467 -0.210768
			-0.941249  0.263937 -0.210684
			-0.097942 -0.111161 -0.988964
			-0.248143 -0.111303 -0.962308
			 0.017881  0.098350 -0.994991
			-0.147520 -0.026104 -0.988715
			-0.174224 -0.026140 -0.984359
			 0.205588  0.289390 -0.934873
			 0.168972  0.327120 -0.929753
			 0.161763  0.325690 -0.931536
			 0.125698  0.369592 -0.920653
			 0.092748  0.241926 -0.965852
			 0.243652  0.069408 -0.967376
			 0.086243  0.368119 -0.925770
			 0.140197  0.086738 -0.986317
			 0.124388  0.053502 -0.990790
			-0.188999 -0.374821 -0.907628
			 0.064699 -0.375205 -0.924681
			-0.171012 -0.168572 -0.970741
			-0.969102  0.095107 -0.227588
			-0.945870  0.025417 -0.323547
			-0.983494  0.170727  0.059929
			-0.299092 -0.391290 -0.870308
			-0.545718 -0.266488 -0.794466
			-0.720047 -0.040784 -0.692726
			-0.858569  0.089299 -0.504861
			 0.053068 -0.156674 -0.986224
			-0.482176 -0.117925 -0.868101
			-0.291923 -0.032648 -0.955884
			 0.179798 -0.270840 -0.945684
			 0.168320  0.096350  0.981012
			-0.074464  0.153826  0.985288
			 0.935524 -0.353262  0.001065
			 0.940028 -0.340810 -0.013966
			 0.954660 -0.297294  0.015530
			 0.927932 -0.201036  0.313889
			 0.952040 -0.221334  0.211260
			 0.768832 -0.099751  0.631623
			 0.917202 -0.184455  0.353153
			 0.964391 -0.264195  0.012262
			 0.966415 -0.255277  0.029589
			 0.793285 -0.458680 -0.400389
			 0.840706 -0.428988 -0.330428
			 0.889914 -0.370538 -0.265998
			 0.820829 -0.432758 -0.372774
			 0.500823 -0.062632  0.863281
			 0.570130 -0.197238  0.797526
			 0.227057  0.076734  0.970854
			 0.127206  0.106054  0.986190
			 0.498813 -0.008911  0.866664
			 0.300124  0.046869  0.952748
			 0.417736  0.036582  0.907832
			 0.682916 -0.048121  0.728910
			-0.810968  0.309675  0.496419
			-0.804394  0.305273  0.509666
			-0.708019  0.285713  0.645815
			-0.907110  0.240707  0.345271
			-0.130947  0.187281  0.973539
			-0.429147  0.254570  0.866618
			-0.216294  0.218510  0.951562
			-0.602509  0.267616  0.751908
			-0.672526  0.272274  0.688169
			-0.947133  0.201920  0.249332
			-0.687499 -0.054314 -0.724151
			-0.990718  0.134789 -0.017607
			-0.967878  0.051727 -0.246040
			-0.819074 -0.077276 -0.568460
			-0.678244  0.195033 -0.708482
			-0.698784  0.126837 -0.703998
			-0.680115  0.047522 -0.731563
			-0.723913  0.422875 -0.545093
			-0.574722  0.432725 -0.694582
			-0.669412  0.648641 -0.362151
			-0.508786  0.644796 -0.570417
			-0.806663  0.541467 -0.236870
			-0.505990  0.133949 -0.852075
			-0.417002  0.148940 -0.896619
			-0.499504  0.284723 -0.818186
			 0.534289 -0.270170 -0.800964
			 0.347530 -0.167890 -0.922516
			 0.340869 -0.246563 -0.907202
			 0.192754 -0.054335 -0.979742
			 0.499453 -0.320666 -0.804811
			 0.705777 -0.361854 -0.609048
			-0.839847  0.408124 -0.357898
			-0.743525  0.538762 -0.396113
			-0.851107  0.199534 -0.485595
			-0.900518  0.170221 -0.400115
			-0.885113  0.151928 -0.439879
			-0.850249  0.279718 -0.445908
			 0.048540  0.308867 -0.949866
			-0.058879  0.157795 -0.985715
			 0.089401  0.346258 -0.933870
			-0.016521 -0.023365 -0.999591
			 0.077745  0.055902 -0.995405
			 0.003173  0.161126 -0.986929
			 0.142986  0.361257 -0.921438
			 0.168539  0.430374 -0.886777
			 0.066379  0.181557 -0.981138
			 0.129649  0.322971 -0.937487
			 0.082450 -0.029882 -0.996147
			 0.048963  0.070435 -0.996314
			 0.136968 -0.071927 -0.987961
			 0.144585 -0.149752 -0.978095
			-0.699608  0.137372 -0.701197
			 0.199395 -0.149290 -0.968480
			 0.089001 -0.015419 -0.995912
			-0.202759  0.069993 -0.976724
			-0.523807  0.050658 -0.850329
			-0.564188  0.149740 -0.811955
			 0.036830  0.152140  0.987673
			 0.843753 -0.412229 -0.343728
			 0.916697 -0.349261 -0.194122
			 0.932992 -0.263186  0.245477
			 0.962144 -0.263809  0.068439
			 0.654786 -0.016678  0.755630
			 0.644156 -0.092885  0.759233
			 0.781694 -0.156404  0.603732
			 0.986915 -0.092536  0.132044
			 0.872218 -0.209013  0.442210
			 0.975965 -0.128239  0.176202
			 0.929377 -0.310607 -0.199456
			 0.933786 -0.303581 -0.189426
			 0.658121 -0.464731 -0.592370
			 0.637189 -0.438224 -0.633996
			 0.691011 -0.436034 -0.576522
			 0.604537 -0.018732  0.796357
			-0.212574  0.194395  0.957613
			-0.103026  0.153761  0.982722
			-0.008946  0.155426  0.987807
			 0.226742  0.075720  0.971007
			 0.608606 -0.058869  0.791286
			 0.404677  0.016747  0.914306
			 0.533222 -0.002768  0.845971
			-0.910356  0.302903  0.281960
			-0.907750  0.279346  0.312980
			-0.703440  0.277904  0.654172
			-0.783780  0.278426  0.555129
			-0.869852  0.309727  0.383962
			-0.987331  0.148562  0.055746
			-0.970878  0.212164  0.111277
			-0.430885  0.241770  0.869417
			-0.679222  0.273652  0.681008
			-0.628060  0.258612  0.733935
			-0.585280 -0.039530 -0.809867
			-0.463136 -0.131352 -0.876499
			-0.597689 -0.170753 -0.783334
			-0.987558  0.100434 -0.121007
			-0.883500 -0.049339 -0.465825
			-0.905726 -0.009463 -0.423758
			-0.984702  0.086068 -0.151509
			-0.726104 -0.126129 -0.675918
			-0.540842  0.125414 -0.831722
			-0.481895  0.013759 -0.876121
			-0.362159  0.511803 -0.779037
			-0.444240  0.376285 -0.813056
			-0.448256  0.645142 -0.618755
			-0.680142  0.632329 -0.370900
			-0.179096  0.549786 -0.815880
			-0.355982  0.059490 -0.932597
			-0.288977  0.032815 -0.956773
			-0.401399  0.076927 -0.912667
			-0.199572  0.156706 -0.967271
			-0.137617 -0.020045 -0.990283
			-0.217810  0.365401 -0.905009
			 0.335485 -0.252317 -0.907626
			 0.255244 -0.234129 -0.938101
			 0.233888 -0.175164 -0.956355
			 0.261803 -0.198984 -0.944386
			 0.715828 -0.134753 -0.685151
			 0.411466 -0.278853 -0.867719
			 0.422321 -0.383707 -0.821227
			-0.676164  0.372333 -0.635744
			-0.646702  0.492439 -0.582477
			-0.616376  0.591303 -0.520040
			-0.395724  0.468540 -0.789856
			-0.687052  0.133997 -0.714146
			-0.722841  0.182543 -0.666467
			 0.081515  0.184352 -0.979474
			 0.682195 -0.007503 -0.731132
			 0.319932  0.133586 -0.937976
			 0.230999  0.418239 -0.878473
			 0.155849  0.306425 -0.939050
			 0.038512  0.163085 -0.985860
			 0.140784  0.345059 -0.927962
			 0.002757 -0.095901 -0.995387
			 0.011561 -0.118807 -0.992850
			 0.145140 -0.131681 -0.980609
			 0.066204  0.183422 -0.980803
			 0.074806  0.031995 -0.996685
			 0.464225 -0.006116 -0.885696
			 0.263494  0.003468 -0.964655
			 0.196459  0.049892 -0.979242
			 0.018500  0.147389 -0.988905
			 0.222620  0.137594 -0.965147
			 0.126652  0.147678 -0.980893
			-0.460147  0.132271 -0.877935
			-0.169605  0.188025 -0.967409
			 0.492339 -0.448481 -0.745967
			 0.783718 -0.415125 -0.462014
			 0.977772 -0.205754  0.040338
			 0.925450 -0.279311  0.255984
			 0.923505 -0.333838 -0.188918
			 0.769733 -0.137345  0.623417
			 0.914118 -0.165091  0.370314
			 0.982166 -0.087892  0.166210
			 0.935025 -0.186832  0.301368
			 0.830713 -0.343099 -0.438404
			 0.784806 -0.353617 -0.508955
			 0.478889 -0.471829 -0.740299
			-0.207096  0.202015  0.957236
			-0.449278  0.224021  0.864849
			-0.071264  0.152710  0.985698
			 0.414903  0.034153  0.909224
			 0.296721  0.057515  0.953231
			 0.670637 -0.054397  0.739789
			 0.494353 -0.027638  0.868822
			-0.950222  0.283681  0.128856
			-0.909476  0.310249  0.276766
			-0.970578  0.240050  0.018816
			-0.898524  0.262528  0.351759
			-0.730005  0.288121  0.619741
			-0.843138  0.265050  0.467833
			-0.982294  0.131588 -0.133355
			-0.594186  0.243342  0.766634
			-0.741582  0.262095  0.617546
			-0.677613  0.253786  0.690242
			-0.454253 -0.072174 -0.887944
			-0.245867 -0.279026 -0.928275
			-0.360615 -0.168615 -0.917347
			-0.552889 -0.198903 -0.809167
			-0.689694 -0.150305 -0.708329
			-0.929518  0.040056 -0.366595
			-0.764296 -0.081086 -0.639748
			-0.310641 -0.034189 -0.949912
			-0.054513  0.385342 -0.921162
			 0.081224  0.343189 -0.935748
			-0.089959 -0.141469 -0.985847
			-0.014304  0.185260 -0.982586
			 0.113139  0.051479 -0.992245
			 0.032000 -0.097257 -0.994745
			-0.039320 -0.141160 -0.989206
			 0.174342 -0.267709 -0.947595
			 0.060346 -0.218863 -0.973888
			 0.321492 -0.292222 -0.900694
			 0.289886 -0.306542 -0.906641
			 0.111302 -0.205450 -0.972318
			 0.373826 -0.318654 -0.871042
			 0.478689 -0.208648 -0.852832
			 0.458642 -0.172034 -0.871810
			 0.258849 -0.195915 -0.945841
			 0.887646 -0.093468 -0.450942
			 0.961828 -0.056783 -0.267700
			 0.218067 -0.387557 -0.895682
			 0.271022 -0.403966 -0.873704
			-0.416429  0.448294 -0.790961
			-0.510640  0.290617 -0.809190
			-0.076925  0.476640 -0.875726
			-0.201179  0.317815 -0.926564
			-0.411238  0.189583 -0.891595
			 0.144256  0.383011 -0.912410
			 0.257615  0.340759 -0.904167
			 0.955317  0.062446 -0.288911
			 0.900011  0.041308 -0.433904
			 0.457757  0.251571 -0.852743
			 0.181613  0.365952 -0.912741
			 0.120394 -0.106013 -0.987049
			 0.022016 -0.149785 -0.988473
			 0.001593 -0.131686 -0.991290
			 0.081615 -0.164299 -0.983028
			 0.206194  0.304822 -0.929821
			 0.149172  0.195606 -0.969271
			 0.242593  0.121816 -0.962450
			 0.238238  0.040934 -0.970344
			 0.409097  0.156338 -0.898998
			 0.430348  0.180928 -0.884345
			 0.103714  0.344282 -0.933120
			 0.215301  0.295020 -0.930918
			 0.260975  0.309346 -0.914438
			 0.375297  0.267931 -0.887336
			-0.070129  0.316209 -0.946094
			 0.362419 -0.425190 -0.829377
			 0.646343 -0.404817 -0.646810
			 0.173307 -0.449395 -0.876361
			 0.959785 -0.225220  0.167596
			 0.945232 -0.317193 -0.076976
			 0.959338 -0.280761 -0.029060
			 0.989044 -0.144649  0.029476
			 0.995468 -0.078622  0.053500
			 0.820649 -0.383625 -0.423516
			 0.868158 -0.376521 -0.323317
			 0.795926 -0.139601  0.589078
			 0.889543 -0.212318  0.404517
			 0.895446 -0.269585  0.354261
			 0.603439 -0.373625 -0.704462
			 0.556687 -0.371626 -0.742963
			 0.673280 -0.384412 -0.631602